/*--------------------------------*- C++ -*----------------------------------*\
  =========                 |
  \\      /  F ield         | OpenFOAM: The Open Source CFD Toolbox
   \\    /   O peration     | Website:  https://openfoam.org
    \\  /    A nd           | Version:  7
     \\/     M anipulation  |
\*---------------------------------------------------------------------------*/
FoamFile
{
    version     2.0;
    format      ascii;
    class       volScalarField;
    location    "100";
    object      nuTilda;
}
// * * * * * * * * * * * * * * * * * * * * * * * * * * * * * * * * * * * * * //

dimensions      [0 2 -1 0 0 0 0];

internalField   nonuniform List<scalar> 
10720
(
0.0890525
0.0934929
0.098446
0.103779
0.109816
0.11656
0.124151
0.132475
0.141498
0.150914
0.160305
0.169244
0.177143
0.183352
0.187718
0.190387
0.191561
0.191515
0.190374
0.188328
0.185368
0.181573
0.176985
0.171822
0.166478
0.161226
0.156064
0.150862
0.145526
0.140051
0.134435
0.128647
0.122651
0.1164
0.10972
0.102499
0.0936756
0.0838457
0.0615168
0.0848033
0.0801458
0.0750133
0.0685375
0.0606334
0.0506094
0.039143
0.0365746
0.0347674
0.0423308
0.0491928
0.0546304
0.059306
0.0636991
0.0680138
0.0722887
0.0764784
0.0805198
0.0843623
0.0880023
0.0914664
0.0947926
0.0980166
0.101139
0.103967
0.106277
0.108044
0.10932
0.110166
0.110606
0.110728
0.110633
0.110306
0.109694
0.108715
0.107361
0.105182
0.102684
0.0930893
0.100266
0.0998491
0.0991351
0.0981416
0.0970712
0.0958465
0.0945393
0.0932852
0.0920626
0.0916617
0.0923695
0.0939781
0.0962536
0.0994373
0.103584
0.108565
0.114327
0.12063
0.127326
0.134066
0.140717
0.146848
0.152144
0.156003
0.15792
0.157978
0.156592
0.154084
0.150776
0.146921
0.142709
0.138271
0.133708
0.129114
0.124594
0.120272
0.11632
0.113072
0.107892
0.100687
0.100787
0.101043
0.100821
0.100365
0.0995929
0.098214
0.0957588
0.0928803
0.0891702
0.085114
0.0810093
0.0769788
0.0730683
0.0694304
0.0661086
0.0631499
0.0605744
0.0583951
0.0565964
0.0551653
0.0540811
0.0533198
0.0528464
0.0526353
0.0526437
0.0528037
0.0530491
0.0533332
0.0540427
0.0560601
0.0591488
0.0626034
0.0658711
0.0686849
0.0711317
0.0731643
0.0769723
0.0802924
0.121439
0.121273
0.120896
0.120313
0.119637
0.11876
0.117677
0.116448
0.115021
0.113425
0.111688
0.109831
0.107899
0.106004
0.104422
0.103082
0.10197
0.101112
0.100433
0.0998027
0.0998318
0.100602
0.102193
0.103948
0.109108
0.115727
0.122327
0.128183
0.133006
0.136684
0.139235
0.140772
0.141468
0.141505
0.141067
0.14023
0.139336
0.137368
0.137943
0.121582
0.12153
0.121506
0.121236
0.120767
0.120081
0.119107
0.117805
0.116168
0.11418
0.111826
0.109166
0.106253
0.103107
0.0998219
0.0964407
0.0930254
0.089621
0.0862801
0.0830171
0.079858
0.0768137
0.0738838
0.0709748
0.0680382
0.0651367
0.0623105
0.0596011
0.0570366
0.0546703
0.0525128
0.0514743
0.051869
0.0532883
0.0552885
0.0577307
0.0604909
0.0635336
0.0686555
0.128568
0.128473
0.128277
0.127977
0.12761
0.127133
0.126543
0.125858
0.125048
0.12412
0.123072
0.121891
0.120571
0.119113
0.117561
0.11593
0.113997
0.111803
0.109349
0.106668
0.10378
0.100915
0.0983028
0.0959977
0.0945038
0.0940753
0.0946263
0.0979034
0.103434
0.109969
0.116837
0.123589
0.129913
0.135639
0.140749
0.145256
0.149504
0.152341
0.156221
0.128637
0.128631
0.128605
0.128468
0.128221
0.127858
0.127334
0.126621
0.125714
0.124592
0.123247
0.121693
0.119934
0.117963
0.115813
0.113496
0.11104
0.108472
0.105827
0.103121
0.100385
0.0976237
0.0948333
0.0919307
0.088851
0.0856404
0.0823283
0.0789519
0.075544
0.0721409
0.068758
0.0654599
0.0623796
0.0596786
0.0573244
0.0567708
0.05754
0.0586886
0.0620099
0.132164
0.132096
0.131966
0.131771
0.131531
0.131222
0.130844
0.130406
0.129888
0.129295
0.128621
0.127855
0.12699
0.126018
0.124922
0.123696
0.122311
0.120737
0.118923
0.116839
0.114431
0.111699
0.108675
0.105476
0.102277
0.0992393
0.0964219
0.0942212
0.0930887
0.0931046
0.0962958
0.101803
0.108866
0.117024
0.125896
0.1352
0.144938
0.154749
0.16437
0.132207
0.1322
0.132174
0.132076
0.131911
0.131676
0.131346
0.130904
0.130348
0.129663
0.128842
0.127891
0.126807
0.125579
0.12422
0.122724
0.121102
0.119358
0.117508
0.115555
0.113513
0.111383
0.109157
0.106768
0.104155
0.101342
0.0983417
0.0951781
0.0918726
0.0884483
0.0849295
0.0813382
0.0777015
0.0740665
0.0704425
0.0669968
0.0639722
0.061217
0.0606485
0.13422
0.134173
0.134087
0.133958
0.133799
0.133594
0.133343
0.133049
0.132703
0.132304
0.131851
0.131335
0.130752
0.130093
0.129346
0.128504
0.127546
0.126457
0.125201
0.123755
0.122071
0.120117
0.117849
0.115268
0.112445
0.10942
0.106238
0.10296
0.0997323
0.096664
0.0943863
0.0933155
0.0949533
0.0997425
0.107183
0.117196
0.129699
0.145505
0.162903
0.134241
0.134231
0.134204
0.134132
0.134013
0.13385
0.133626
0.133331
0.132962
0.132508
0.131967
0.131343
0.130633
0.129828
0.128934
0.127945
0.126862
0.125684
0.124416
0.123055
0.121605
0.12006
0.118409
0.116599
0.114576
0.112343
0.109902
0.107255
0.104408
0.101371
0.0981577
0.0947856
0.0912688
0.0876241
0.0838632
0.0799489
0.0759151
0.0714006
0.0654101
0.135518
0.135487
0.135427
0.135335
0.13522
0.135072
0.134891
0.134678
0.134429
0.134141
0.133814
0.133441
0.133018
0.132539
0.131996
0.131381
0.13068
0.129882
0.128967
0.127924
0.126723
0.125342
0.123744
0.121908
0.119847
0.117558
0.115008
0.112182
0.109081
0.105718
0.102229
0.0987784
0.0959456
0.0943898
0.0962219
0.101846
0.111804
0.128818
0.152969
0.135523
0.135512
0.135488
0.135437
0.135348
0.135228
0.135067
0.134856
0.134596
0.134277
0.1339
0.133466
0.132975
0.13242
0.131804
0.131123
0.130374
0.129556
0.12867
0.127712
0.12668
0.125568
0.124364
0.123027
0.121513
0.119817
0.117929
0.115841
0.113547
0.111043
0.108327
0.105403
0.102273
0.0989427
0.0954125
0.0916417
0.0875461
0.0830244
0.0744721
0.136392
0.136374
0.136333
0.136269
0.136186
0.136079
0.135947
0.135792
0.135609
0.135399
0.135161
0.134889
0.134582
0.134234
0.133839
0.133391
0.13288
0.132297
0.131623
0.130847
0.129947
0.128908
0.127712
0.126347
0.124821
0.123122
0.121214
0.119061
0.116627
0.113874
0.110774
0.107321
0.1036
0.0998124
0.0968196
0.0957523
0.0995506
0.111529
0.137582
0.13639
0.136384
0.136369
0.136337
0.136269
0.136176
0.136053
0.135894
0.1357
0.135464
0.135187
0.134873
0.134518
0.134119
0.133678
0.13319
0.132654
0.132068
0.13143
0.130738
0.129988
0.129175
0.128288
0.127295
0.126165
0.124887
0.123451
0.121844
0.120052
0.118065
0.115869
0.113459
0.110824
0.107958
0.104846
0.101453
0.0976208
0.0935085
0.0846307
0.137017
0.137006
0.136978
0.136932
0.136872
0.136792
0.136693
0.136576
0.136437
0.136278
0.136097
0.13589
0.135656
0.135392
0.135091
0.134749
0.134359
0.133912
0.1334
0.132813
0.132135
0.131352
0.130447
0.129411
0.12825
0.126957
0.125503
0.123862
0.122
0.119878
0.117446
0.114648
0.111426
0.107728
0.103647
0.0995362
0.0968498
0.100198
0.121535
0.137018
0.137023
0.137019
0.136999
0.136946
0.13687
0.13677
0.136644
0.136492
0.136309
0.136098
0.13586
0.135594
0.135297
0.134971
0.13461
0.134214
0.133782
0.13331
0.132797
0.13224
0.131632
0.130966
0.130218
0.129364
0.128394
0.127299
0.126064
0.124677
0.123122
0.121385
0.11945
0.117302
0.114925
0.112294
0.109372
0.105972
0.102349
0.0941167
0.137495
0.137485
0.137464
0.13743
0.137384
0.137322
0.137246
0.137155
0.137049
0.136926
0.136786
0.136627
0.136447
0.136243
0.136011
0.135748
0.135448
0.135104
0.134709
0.134254
0.133727
0.133119
0.132417
0.131616
0.130716
0.12971
0.128577
0.127296
0.125844
0.124189
0.122292
0.120104
0.117556
0.114552
0.110974
0.106659
0.101821
0.0972618
0.109393
0.137504
0.137518
0.137522
0.137509
0.137465
0.1374
0.137316
0.137212
0.137088
0.136941
0.136774
0.136587
0.136381
0.136153
0.135903
0.135629
0.13533
0.135002
0.134645
0.134256
0.133833
0.13337
0.13286
0.132286
0.13163
0.130884
0.130038
0.129083
0.128004
0.126788
0.12542
0.123882
0.122159
0.120227
0.118058
0.115615
0.112704
0.109596
0.102359
0.13788
0.137869
0.13785
0.137821
0.137784
0.137734
0.137672
0.137599
0.137514
0.137416
0.137305
0.13718
0.137038
0.136877
0.136695
0.136488
0.136252
0.135981
0.135669
0.135311
0.134897
0.13442
0.13387
0.133241
0.132535
0.131744
0.13085
0.129837
0.128685
0.12737
0.125862
0.124127
0.122103
0.119751
0.117044
0.113565
0.109115
0.101445
0.103808
0.137897
0.137913
0.137919
0.137908
0.137869
0.137814
0.137744
0.137656
0.137553
0.137432
0.137295
0.137144
0.136979
0.136799
0.136603
0.136389
0.136156
0.135903
0.135627
0.135326
0.134998
0.134639
0.134242
0.133794
0.133282
0.132699
0.132038
0.13129
0.130443
0.129485
0.128403
0.127182
0.125803
0.124247
0.122481
0.120472
0.118037
0.115429
0.109266
0.1382
0.138186
0.138169
0.138143
0.13811
0.138067
0.138014
0.137953
0.137882
0.137801
0.137711
0.137609
0.137495
0.137367
0.137221
0.137056
0.136868
0.136652
0.136404
0.136118
0.135787
0.135407
0.134969
0.134469
0.133907
0.133278
0.132566
0.131758
0.130836
0.129781
0.128568
0.127171
0.125537
0.123633
0.121593
0.119093
0.116047
0.108731
0.104242
0.138217
0.138229
0.138231
0.13822
0.138186
0.13814
0.138081
0.138008
0.137922
0.137821
0.137707
0.137583
0.137448
0.137302
0.137144
0.136974
0.136789
0.136588
0.136371
0.136134
0.135875
0.135592
0.135278
0.134923
0.134518
0.134056
0.133532
0.132939
0.132267
0.131506
0.130643
0.129667
0.128561
0.127307
0.125875
0.124236
0.122224
0.120067
0.11493
0.138463
0.138451
0.138436
0.138412
0.138382
0.138344
0.138297
0.138243
0.138182
0.138113
0.138037
0.137952
0.137858
0.137753
0.137634
0.1375
0.137347
0.137172
0.136971
0.13674
0.136474
0.136167
0.135815
0.135413
0.134962
0.134456
0.133884
0.133233
0.13249
0.131639
0.130657
0.129524
0.128194
0.126633
0.12499
0.123104
0.121067
0.11598
0.10844
0.138473
0.138477
0.138472
0.138461
0.138433
0.138396
0.138348
0.138289
0.138217
0.138133
0.138038
0.137935
0.137823
0.137703
0.137574
0.137435
0.137286
0.137124
0.136949
0.136759
0.136552
0.136325
0.136073
0.135788
0.135463
0.135093
0.134673
0.134197
0.133658
0.133047
0.132353
0.131567
0.130675
0.129659
0.128496
0.12716
0.125506
0.123734
0.119517
0.138674
0.138667
0.138655
0.138634
0.138608
0.138574
0.138533
0.138485
0.138431
0.138372
0.138306
0.138234
0.138154
0.138066
0.137967
0.137856
0.137729
0.137586
0.137421
0.137231
0.137014
0.136764
0.136478
0.136152
0.135786
0.135376
0.134911
0.134382
0.133779
0.133087
0.13229
0.131365
0.13028
0.129028
0.127692
0.126179
0.124564
0.121594
0.113969
0.138673
0.138668
0.138659
0.13865
0.138626
0.138597
0.138559
0.138512
0.138453
0.138384
0.138306
0.13822
0.138128
0.138028
0.137921
0.137807
0.137684
0.137552
0.137409
0.137254
0.137086
0.136901
0.136696
0.136465
0.1362
0.1359
0.13556
0.135175
0.134738
0.134242
0.13368
0.133042
0.132316
0.131489
0.13054
0.129447
0.128088
0.126632
0.123203
0.138838
0.138837
0.13883
0.138814
0.138793
0.138764
0.138729
0.138687
0.13864
0.138588
0.138531
0.138469
0.1384
0.138325
0.13824
0.138146
0.13804
0.13792
0.137782
0.137625
0.137445
0.137239
0.137004
0.136738
0.136439
0.136103
0.135722
0.13529
0.134796
0.13423
0.133577
0.132817
0.131943
0.130975
0.129917
0.1287
0.127246
0.125489
0.119188
0.138827
0.138817
0.138809
0.138803
0.138784
0.13876
0.138729
0.138691
0.138643
0.138587
0.138523
0.138452
0.138375
0.138293
0.138204
0.13811
0.138008
0.137899
0.137781
0.137653
0.137514
0.137362
0.137194
0.137003
0.136786
0.13654
0.136261
0.135946
0.135589
0.135184
0.134724
0.134202
0.133608
0.132931
0.132151
0.131253
0.130134
0.128934
0.126158
0.138966
0.13897
0.138967
0.138956
0.13894
0.138918
0.138888
0.138854
0.138814
0.138769
0.13872
0.138666
0.138606
0.138541
0.138468
0.138387
0.138297
0.138195
0.138078
0.137946
0.137795
0.137623
0.137428
0.137208
0.136962
0.136685
0.136372
0.136015
0.135608
0.135142
0.134602
0.133981
0.133297
0.132564
0.131742
0.130788
0.129496
0.128256
0.123455
0.138951
0.138944
0.13894
0.138938
0.13892
0.138898
0.138871
0.138839
0.138799
0.138753
0.1387
0.138642
0.138578
0.13851
0.138437
0.138359
0.138274
0.138183
0.138086
0.137979
0.137864
0.137737
0.137597
0.137439
0.137258
0.137055
0.136825
0.136564
0.13627
0.135936
0.135558
0.135128
0.134638
0.134079
0.133436
0.132694
0.131769
0.130776
0.12853
0.139072
0.139078
0.139078
0.139071
0.139059
0.139041
0.139018
0.13899
0.138957
0.138919
0.138877
0.138831
0.138779
0.138723
0.13866
0.13859
0.138512
0.138424
0.138324
0.138211
0.138083
0.137938
0.137775
0.137591
0.137386
0.137157
0.136897
0.136601
0.136264
0.135876
0.13543
0.134936
0.134414
0.133858
0.133224
0.132488
0.13141
0.130389
0.12677
0.139062
0.139062
0.139064
0.139064
0.139046
0.139023
0.138997
0.138967
0.138932
0.138892
0.138847
0.138799
0.138746
0.13869
0.138629
0.138564
0.138495
0.138419
0.138337
0.138249
0.138152
0.138046
0.137928
0.137795
0.137645
0.137474
0.137283
0.137066
0.136822
0.136545
0.136231
0.135874
0.135468
0.135005
0.134471
0.133855
0.133088
0.132261
0.130442
0.139171
0.139175
0.139175
0.139169
0.139159
0.139145
0.139126
0.139103
0.139075
0.139044
0.139009
0.138969
0.138925
0.138876
0.138821
0.13876
0.138693
0.138616
0.138531
0.138434
0.138324
0.1382
0.138061
0.137906
0.137734
0.137543
0.137326
0.137079
0.136797
0.136474
0.136114
0.135735
0.135339
0.134915
0.134424
0.133855
0.133001
0.132133
0.12935
0.139171
0.139177
0.139185
0.139184
0.139165
0.139141
0.139114
0.139084
0.139051
0.139014
0.138974
0.138933
0.138888
0.138841
0.13879
0.138736
0.138678
0.138615
0.138547
0.138473
0.138392
0.138302
0.138203
0.138091
0.137964
0.13782
0.13766
0.137478
0.137274
0.137043
0.136781
0.136483
0.136145
0.135758
0.135313
0.134798
0.13416
0.133469
0.131991
0.139271
0.139271
0.139269
0.139261
0.139252
0.139238
0.139221
0.139201
0.139177
0.13915
0.13912
0.139086
0.139048
0.139006
0.138959
0.138906
0.138847
0.138781
0.138706
0.138622
0.138527
0.13842
0.138301
0.138169
0.138023
0.137862
0.137679
0.137472
0.137236
0.136973
0.136694
0.136409
0.136109
0.135783
0.135401
0.134957
0.134295
0.133581
0.131399
0.139279
0.139289
0.139296
0.139294
0.139275
0.139251
0.139223
0.139193
0.139161
0.139125
0.139088
0.13905
0.139011
0.13897
0.138927
0.138882
0.138833
0.13878
0.138723
0.138661
0.138592
0.138517
0.138433
0.138338
0.13823
0.138109
0.137973
0.13782
0.137648
0.137454
0.137234
0.136985
0.136701
0.136377
0.136004
0.135573
0.135039
0.134459
0.133255
0.13937
0.139366
0.139361
0.139352
0.13934
0.139326
0.139309
0.13929
0.139268
0.139244
0.139217
0.139188
0.139155
0.139118
0.139077
0.139031
0.13898
0.138922
0.138857
0.138783
0.1387
0.138607
0.138504
0.13839
0.138266
0.138129
0.137975
0.137802
0.13761
0.137406
0.137198
0.136984
0.136756
0.136505
0.136208
0.13586
0.135344
0.134778
0.133055
0.139381
0.139387
0.13939
0.139387
0.139371
0.139348
0.139322
0.139293
0.139261
0.139227
0.139192
0.139157
0.139121
0.139084
0.139047
0.139007
0.138966
0.138921
0.138873
0.13882
0.138762
0.138698
0.138626
0.138545
0.138453
0.138351
0.138236
0.138106
0.137961
0.137797
0.137612
0.137402
0.137162
0.136889
0.136575
0.136213
0.135765
0.135277
0.134291
0.139461
0.139456
0.13945
0.139439
0.139426
0.13941
0.139393
0.139374
0.139353
0.13933
0.139305
0.139278
0.139249
0.139216
0.13918
0.13914
0.139095
0.139045
0.138987
0.138923
0.13885
0.138769
0.138679
0.13858
0.138473
0.138356
0.138229
0.13809
0.137943
0.137794
0.137641
0.137482
0.13731
0.137117
0.136886
0.136612
0.136206
0.135765
0.134405
0.139467
0.139466
0.139464
0.139462
0.139449
0.13943
0.139407
0.139381
0.139351
0.13932
0.139287
0.139253
0.13922
0.139186
0.139153
0.139118
0.139082
0.139043
0.139002
0.138956
0.138907
0.138852
0.138791
0.138722
0.138643
0.138555
0.138457
0.138348
0.138224
0.138085
0.137929
0.137751
0.137548
0.137317
0.137052
0.136745
0.136368
0.135956
0.135147
0.139536
0.139533
0.139527
0.139516
0.139503
0.139488
0.13947
0.139451
0.139431
0.139409
0.139386
0.139361
0.139334
0.139304
0.139272
0.139237
0.139197
0.139152
0.139102
0.139045
0.138981
0.13891
0.138831
0.138745
0.138654
0.138559
0.138457
0.138352
0.138246
0.138139
0.13803
0.137914
0.137785
0.137639
0.13746
0.137246
0.136926
0.136583
0.135513
0.139535
0.139528
0.139524
0.139522
0.139511
0.139496
0.139477
0.139455
0.139429
0.139401
0.139371
0.13934
0.13931
0.139279
0.139248
0.139216
0.139184
0.13915
0.139114
0.139075
0.139032
0.138985
0.138932
0.138873
0.138805
0.13873
0.138646
0.138552
0.138447
0.138329
0.138196
0.138044
0.137872
0.137676
0.137451
0.137192
0.136872
0.136525
0.135858
0.139594
0.139594
0.13959
0.139581
0.13957
0.139556
0.13954
0.139522
0.139502
0.139482
0.13946
0.139436
0.139411
0.139384
0.139355
0.139322
0.139287
0.139247
0.139203
0.139153
0.139096
0.139033
0.138964
0.138892
0.138818
0.138743
0.138666
0.13859
0.138514
0.138439
0.138361
0.138278
0.138186
0.138078
0.137943
0.13778
0.13753
0.137265
0.136427
0.139588
0.139581
0.139577
0.139574
0.139565
0.139552
0.139536
0.139517
0.139495
0.139471
0.139444
0.139417
0.139389
0.139361
0.139333
0.139305
0.139276
0.139246
0.139214
0.139179
0.139142
0.139101
0.139055
0.139003
0.138945
0.13888
0.138808
0.138727
0.138637
0.138536
0.138422
0.138293
0.138147
0.13798
0.137787
0.137567
0.137295
0.137004
0.136453
0.139641
0.139643
0.139641
0.139634
0.139625
0.139613
0.139599
0.139583
0.139566
0.139546
0.139526
0.139504
0.139481
0.139456
0.139429
0.1394
0.139368
0.139332
0.139292
0.139247
0.139198
0.139142
0.139083
0.139024
0.138966
0.138908
0.138852
0.138797
0.138743
0.138689
0.138635
0.138577
0.138512
0.138436
0.138339
0.13822
0.13803
0.137832
0.13718
0.139636
0.139633
0.139631
0.139626
0.139615
0.139602
0.139587
0.139571
0.139552
0.139531
0.139508
0.139484
0.13946
0.139435
0.13941
0.139384
0.139358
0.139331
0.139303
0.139272
0.139239
0.139203
0.139162
0.139117
0.139066
0.13901
0.138947
0.138878
0.138801
0.138714
0.138616
0.138505
0.13838
0.138237
0.138072
0.137885
0.137652
0.13741
0.136955
0.139685
0.139687
0.139685
0.13968
0.139672
0.139663
0.13965
0.139637
0.139621
0.139604
0.139585
0.139565
0.139544
0.139521
0.139496
0.13947
0.13944
0.139408
0.139372
0.139332
0.139288
0.139239
0.139189
0.139141
0.139097
0.139054
0.139013
0.138972
0.138933
0.138894
0.138855
0.138815
0.138771
0.138719
0.138653
0.138571
0.138433
0.138293
0.137797
0.139686
0.139689
0.139687
0.139679
0.139666
0.139652
0.139636
0.13962
0.139603
0.139584
0.139564
0.139543
0.139521
0.139499
0.139477
0.139455
0.139431
0.139407
0.139382
0.139355
0.139326
0.139293
0.139258
0.139217
0.139173
0.139123
0.139069
0.139009
0.138942
0.138867
0.138782
0.138687
0.138579
0.138456
0.138315
0.138155
0.137953
0.137757
0.137382
0.139733
0.139732
0.139729
0.139723
0.139716
0.139707
0.139696
0.139684
0.13967
0.139655
0.139638
0.13962
0.139601
0.13958
0.139557
0.139533
0.139506
0.139477
0.139444
0.139408
0.139368
0.139326
0.139283
0.139245
0.139211
0.139179
0.139149
0.139119
0.13909
0.139061
0.139033
0.139004
0.138973
0.138939
0.138895
0.138842
0.138748
0.138657
0.13829
0.13974
0.139744
0.139742
0.139732
0.139718
0.139701
0.139685
0.139668
0.139651
0.139633
0.139614
0.139595
0.139576
0.139557
0.139537
0.139517
0.139497
0.139475
0.139453
0.139429
0.139403
0.139374
0.139342
0.139306
0.139267
0.139223
0.139175
0.139123
0.139064
0.138999
0.138926
0.138843
0.13875
0.138644
0.138522
0.138385
0.13821
0.138052
0.137745
0.139782
0.139778
0.139774
0.139767
0.13976
0.13975
0.13974
0.139728
0.139715
0.139701
0.139686
0.139669
0.139652
0.139633
0.139613
0.13959
0.139566
0.13954
0.13951
0.139477
0.139441
0.139403
0.139367
0.139335
0.139309
0.139285
0.139262
0.139241
0.139219
0.139198
0.139177
0.139155
0.139133
0.13911
0.139082
0.139049
0.138987
0.138935
0.138672
0.139791
0.139795
0.139791
0.13978
0.139766
0.139749
0.139732
0.139715
0.139698
0.13968
0.139661
0.139644
0.139626
0.139609
0.139591
0.139573
0.139555
0.139536
0.139516
0.139495
0.139472
0.139446
0.139418
0.139386
0.13935
0.139312
0.139269
0.139223
0.139172
0.139114
0.139051
0.138979
0.138898
0.138806
0.138701
0.138582
0.138431
0.138304
0.138051
0.139829
0.139824
0.139819
0.139811
0.139802
0.139792
0.139781
0.13977
0.139757
0.139744
0.13973
0.139715
0.139699
0.139682
0.139663
0.139643
0.139621
0.139597
0.13957
0.13954
0.139507
0.139474
0.139442
0.139415
0.139393
0.139374
0.139357
0.139341
0.139326
0.13931
0.139294
0.139278
0.139262
0.139245
0.139226
0.139206
0.139167
0.139142
0.138961
0.139836
0.139838
0.139832
0.139821
0.139808
0.139792
0.139776
0.139759
0.139742
0.139724
0.139706
0.139689
0.139672
0.139656
0.13964
0.139624
0.139607
0.139591
0.139573
0.139554
0.139533
0.13951
0.139485
0.139457
0.139425
0.13939
0.139353
0.139311
0.139266
0.139216
0.13916
0.139097
0.139026
0.138946
0.138854
0.138751
0.138621
0.138518
0.13831
0.139869
0.139865
0.139859
0.139851
0.139842
0.139832
0.139821
0.13981
0.139798
0.139786
0.139772
0.139759
0.139744
0.139728
0.139711
0.139692
0.139672
0.13965
0.139626
0.139598
0.139568
0.139537
0.139508
0.139484
0.139466
0.13945
0.139437
0.139425
0.139413
0.139402
0.13939
0.139378
0.139366
0.139354
0.139341
0.139329
0.139304
0.139296
0.139174
0.139873
0.139873
0.139867
0.139856
0.139844
0.13983
0.139815
0.139799
0.139783
0.139766
0.139748
0.139732
0.139716
0.1397
0.139685
0.13967
0.139655
0.13964
0.139624
0.139607
0.139589
0.139568
0.139546
0.13952
0.139492
0.139461
0.139427
0.13939
0.13935
0.139305
0.139255
0.1392
0.139138
0.139067
0.138988
0.138898
0.138785
0.138701
0.138528
0.139902
0.139899
0.139894
0.139886
0.139878
0.139869
0.139858
0.139848
0.139837
0.139825
0.139813
0.1398
0.139786
0.139772
0.139756
0.139739
0.13972
0.1397
0.139677
0.139652
0.139625
0.139596
0.139568
0.139546
0.139529
0.139516
0.139504
0.139495
0.139486
0.139477
0.139469
0.13946
0.139452
0.139443
0.139434
0.139426
0.13941
0.139412
0.139329
0.139905
0.139904
0.139899
0.139887
0.139876
0.139863
0.13985
0.139835
0.13982
0.139804
0.139787
0.139771
0.139756
0.139741
0.139727
0.139713
0.139699
0.139685
0.13967
0.139655
0.139639
0.13962
0.1396
0.139577
0.139551
0.139523
0.139493
0.13946
0.139424
0.139384
0.13934
0.139291
0.139236
0.139174
0.139104
0.139025
0.138927
0.138857
0.138713
0.139931
0.139929
0.139924
0.139917
0.13991
0.139901
0.139892
0.139883
0.139873
0.139862
0.139851
0.139839
0.139827
0.139813
0.139798
0.139782
0.139765
0.139746
0.139726
0.139703
0.139677
0.13965
0.139623
0.139601
0.139585
0.139572
0.139563
0.139554
0.139547
0.13954
0.139534
0.139528
0.139522
0.139516
0.13951
0.139505
0.139494
0.139502
0.139442
0.139934
0.139935
0.13993
0.139917
0.139906
0.139894
0.139881
0.139867
0.139853
0.139838
0.139823
0.139808
0.139793
0.139779
0.139766
0.139752
0.139739
0.139726
0.139713
0.139699
0.139684
0.139667
0.139649
0.139628
0.139605
0.13958
0.139552
0.139523
0.13949
0.139454
0.139415
0.139371
0.139322
0.139268
0.139206
0.139136
0.13905
0.13899
0.138869
0.139959
0.139956
0.139951
0.139945
0.139939
0.139931
0.139924
0.139916
0.139907
0.139898
0.139888
0.139877
0.139865
0.139852
0.139839
0.139824
0.139807
0.13979
0.139771
0.13975
0.139726
0.1397
0.139674
0.139652
0.139635
0.139623
0.139613
0.139606
0.1396
0.139594
0.139589
0.139585
0.13958
0.139576
0.139572
0.13957
0.139562
0.139573
0.139527
0.139963
0.139965
0.13996
0.139947
0.139935
0.139923
0.13991
0.139897
0.139883
0.139869
0.139855
0.139841
0.139827
0.139814
0.139801
0.139789
0.139777
0.139764
0.139752
0.139739
0.139725
0.13971
0.139693
0.139674
0.139653
0.13963
0.139606
0.139579
0.139549
0.139517
0.139482
0.139443
0.139399
0.13935
0.139296
0.139234
0.139158
0.139105
0.139002
0.139986
0.139982
0.139977
0.139972
0.139966
0.13996
0.139953
0.139947
0.139939
0.139931
0.139922
0.139912
0.139901
0.139889
0.139876
0.139862
0.139847
0.139831
0.139813
0.139793
0.139772
0.139748
0.139722
0.139699
0.139681
0.139668
0.139658
0.139651
0.139645
0.13964
0.139636
0.139633
0.13963
0.139627
0.139624
0.139624
0.139618
0.139631
0.139591
0.139992
0.139994
0.139988
0.139975
0.139962
0.13995
0.139937
0.139925
0.139912
0.139898
0.139885
0.139871
0.139859
0.139846
0.139834
0.139822
0.139811
0.139799
0.139788
0.139776
0.139763
0.139749
0.139734
0.139716
0.139697
0.139676
0.139654
0.139629
0.139602
0.139573
0.139541
0.139506
0.139467
0.139424
0.139375
0.139321
0.139253
0.139205
0.139116
0.140013
0.140008
0.140003
0.139997
0.139992
0.139987
0.139982
0.139977
0.13997
0.139963
0.139955
0.139945
0.139935
0.139924
0.139911
0.139898
0.139884
0.139868
0.139852
0.139834
0.139814
0.139792
0.139768
0.139744
0.139724
0.139709
0.139698
0.139691
0.139685
0.13968
0.139677
0.139674
0.139671
0.13967
0.139668
0.139669
0.139665
0.139679
0.139638
0.140018
0.140019
0.140013
0.14
0.139988
0.139976
0.139964
0.139951
0.139938
0.139925
0.139912
0.139899
0.139887
0.139875
0.139864
0.139853
0.139842
0.139831
0.13982
0.139809
0.139797
0.139784
0.13977
0.139754
0.139737
0.139718
0.139697
0.139675
0.13965
0.139624
0.139595
0.139563
0.139528
0.139489
0.139446
0.139398
0.139336
0.139292
0.139214
0.140037
0.140032
0.140027
0.140022
0.140017
0.140014
0.14001
0.140005
0.14
0.139993
0.139985
0.139976
0.139966
0.139955
0.139944
0.139932
0.139918
0.139904
0.139888
0.139871
0.139853
0.139833
0.139811
0.139787
0.139765
0.139748
0.139736
0.139727
0.13972
0.139715
0.139712
0.139709
0.139707
0.139706
0.139705
0.139707
0.139703
0.139719
0.139673
0.14004
0.140041
0.140035
0.140021
0.14001
0.139999
0.139987
0.139975
0.139962
0.13995
0.139937
0.139925
0.139913
0.139902
0.139891
0.139881
0.139871
0.139861
0.13985
0.13984
0.139829
0.139817
0.139804
0.139789
0.139773
0.139755
0.139736
0.139716
0.139693
0.139669
0.139643
0.139614
0.139583
0.139548
0.139509
0.139466
0.139411
0.139369
0.139299
0.140057
0.140054
0.140048
0.140044
0.140041
0.140039
0.140036
0.140032
0.140027
0.14002
0.140013
0.140004
0.139995
0.139985
0.139975
0.139963
0.139951
0.139937
0.139923
0.139907
0.139889
0.139871
0.139851
0.139829
0.139806
0.139786
0.139771
0.13976
0.139752
0.139747
0.139743
0.13974
0.139739
0.139738
0.139737
0.139739
0.139736
0.139753
0.139706
0.140059
0.14006
0.140054
0.140041
0.140029
0.140019
0.140009
0.139997
0.139985
0.139972
0.13996
0.139948
0.139937
0.139926
0.139916
0.139906
0.139897
0.139887
0.139878
0.139868
0.139857
0.139846
0.139834
0.13982
0.139805
0.139789
0.139772
0.139753
0.139733
0.139711
0.139687
0.13966
0.139632
0.1396
0.139565
0.139527
0.139478
0.139437
0.139375
0.140075
0.140072
0.140067
0.140064
0.140063
0.140062
0.14006
0.140057
0.140052
0.140046
0.140039
0.140032
0.140023
0.140014
0.140004
0.139993
0.139982
0.139969
0.139955
0.13994
0.139924
0.139907
0.139889
0.139869
0.139847
0.139825
0.139806
0.139792
0.139782
0.139776
0.139771
0.139768
0.139766
0.139765
0.139765
0.139767
0.139764
0.139782
0.139737
0.140077
0.140078
0.140072
0.140058
0.140047
0.140038
0.140028
0.140017
0.140005
0.139993
0.139981
0.13997
0.139959
0.139949
0.139939
0.13993
0.13992
0.139912
0.139902
0.139893
0.139884
0.139873
0.139862
0.139849
0.139835
0.13982
0.139804
0.139787
0.139768
0.139748
0.139726
0.139702
0.139676
0.139647
0.139615
0.139581
0.139538
0.139499
0.139442
0.140092
0.140088
0.140084
0.140083
0.140084
0.140084
0.140082
0.140079
0.140075
0.14007
0.140064
0.140058
0.14005
0.140042
0.140032
0.140022
0.140011
0.139999
0.139986
0.139972
0.139957
0.139941
0.139923
0.139906
0.139886
0.139865
0.139843
0.139825
0.139811
0.139803
0.139797
0.139793
0.13979
0.139789
0.139789
0.139791
0.139788
0.139806
0.139765
0.140094
0.140096
0.14009
0.140076
0.140064
0.140055
0.140045
0.140035
0.140023
0.140012
0.14
0.139989
0.139979
0.139969
0.13996
0.139951
0.139942
0.139934
0.139925
0.139916
0.139907
0.139898
0.139887
0.139875
0.139862
0.139848
0.139833
0.139817
0.1398
0.139782
0.139761
0.13974
0.139716
0.13969
0.139661
0.13963
0.139592
0.139555
0.139502
0.140108
0.140104
0.1401
0.140102
0.140104
0.140104
0.140102
0.1401
0.140096
0.140093
0.140088
0.140082
0.140075
0.140068
0.140059
0.14005
0.140039
0.140028
0.140016
0.140002
0.139988
0.139973
0.139956
0.13994
0.139922
0.139903
0.139881
0.139859
0.139841
0.139829
0.13982
0.139815
0.139812
0.139811
0.13981
0.139812
0.139809
0.139826
0.13979
0.140111
0.140114
0.140107
0.140092
0.140081
0.140072
0.140062
0.140051
0.14004
0.140029
0.140018
0.140007
0.139997
0.139988
0.139979
0.13997
0.139962
0.139954
0.139946
0.139938
0.139929
0.13992
0.13991
0.139899
0.139886
0.139873
0.13986
0.139845
0.139829
0.139812
0.139794
0.139774
0.139752
0.139728
0.139702
0.139674
0.13964
0.139606
0.139557
0.140124
0.140119
0.140116
0.14012
0.140122
0.140122
0.140121
0.140119
0.140117
0.140114
0.14011
0.140105
0.140099
0.140092
0.140084
0.140076
0.140066
0.140056
0.140044
0.140031
0.140018
0.140003
0.139988
0.139972
0.139956
0.139938
0.139919
0.139897
0.139874
0.139856
0.139844
0.139836
0.139832
0.139829
0.139828
0.13983
0.139827
0.139843
0.139813
0.140126
0.14013
0.140123
0.140108
0.140097
0.140088
0.140078
0.140067
0.140056
0.140044
0.140034
0.140023
0.140014
0.140005
0.139996
0.139988
0.13998
0.139972
0.139965
0.139957
0.139949
0.13994
0.139931
0.13992
0.139909
0.139896
0.139884
0.13987
0.139855
0.139839
0.139823
0.139804
0.139785
0.139763
0.139739
0.139713
0.139683
0.139652
0.139607
0.140139
0.140133
0.140131
0.140138
0.140139
0.140138
0.140139
0.140138
0.140137
0.140134
0.140131
0.140126
0.140121
0.140115
0.140108
0.1401
0.140091
0.140082
0.140071
0.140059
0.140046
0.140032
0.140018
0.140003
0.139987
0.139971
0.139954
0.139934
0.139911
0.139888
0.139869
0.139857
0.13985
0.139846
0.139844
0.139846
0.139842
0.139857
0.139832
0.14014
0.140142
0.140136
0.140121
0.140111
0.140103
0.140093
0.140081
0.14007
0.140059
0.140049
0.140039
0.140029
0.140021
0.140012
0.140004
0.139997
0.139989
0.139982
0.139974
0.139966
0.139958
0.139949
0.139939
0.139928
0.139917
0.139905
0.139892
0.139878
0.139864
0.139848
0.139832
0.139814
0.139794
0.139773
0.139749
0.139722
0.139694
0.139653
0.140151
0.140146
0.140146
0.140153
0.140153
0.140153
0.140155
0.140155
0.140154
0.140153
0.14015
0.140146
0.140141
0.140136
0.14013
0.140123
0.140115
0.140106
0.140096
0.140085
0.140074
0.140061
0.140047
0.140032
0.140017
0.140002
0.139986
0.139968
0.139948
0.139925
0.139901
0.139881
0.139868
0.139861
0.139858
0.139859
0.139855
0.139869
0.139848
0.140151
0.140151
0.140146
0.140132
0.140123
0.140115
0.140105
0.140094
0.140083
0.140072
0.140062
0.140052
0.140043
0.140035
0.140027
0.140019
0.140011
0.140004
0.139997
0.13999
0.139982
0.139974
0.139965
0.139956
0.139946
0.139935
0.139924
0.139912
0.139899
0.139886
0.139871
0.139856
0.13984
0.139822
0.139802
0.139781
0.139756
0.139731
0.139694
0.140158
0.140156