/*--------------------------------*- C++ -*----------------------------------*\
  =========                 |
  \\      /  F ield         | OpenFOAM: The Open Source CFD Toolbox
   \\    /   O peration     | Website:  https://openfoam.org
    \\  /    A nd           | Version:  7
     \\/     M anipulation  |
\*---------------------------------------------------------------------------*/
FoamFile
{
    version     2.0;
    format      ascii;
    class       volScalarField;
    location    "100";
    object      p;
}
// * * * * * * * * * * * * * * * * * * * * * * * * * * * * * * * * * * * * * //

dimensions      [0 2 -2 0 0 0 0];

internalField   nonuniform List<scalar> 
10720
(
-44.8189
-115.626
-199.328
-282.05
-359.026
-437.826
-508.066
-567.571
-619.736
-661.053
-693.288
-717.7
-734.707
-745.421
-750.564
-749.724
-743.68
-731.098
-713.073
-688.275
-657.699
-620.582
-579.09
-534.12
-489.072
-448.867
-412.562
-376.723
-341.085
-305.87
-270.917
-236.098
-201.318
-166.367
-131.013
-94.222
-55.7311
-9.99402
35.1286
25.9614
90.0731
158.005
220.999
274.225
313.516
335.361
341.846
337.551
322.612
300.542
276.258
252.017
228.818
207.336
187.241
168.534
150.756
133.638
116.649
99.7445
82.5912
65.2933
48.2677
33.4796
22.0151
12.7609
5.30964
-0.336696
-4.12868
-6.16732
-6.56178
-5.3991
-2.68188
1.59242
7.83554
16.5801
31.5669
56.584
52.5734
-1.22549
-61.605
-125.937
-192.228
-260.277
-326.581
-389.052
-447
-498.657
-543.635
-581.769
-613.115
-637.837
-655.804
-666.708
-670.986
-668.248
-659.031
-642.743
-619.913
-590.277
-555.454
-516.555
-476.562
-439.643
-405.383
-371.118
-336.69
-302.416
-268.221
-234.015
-199.729
-165.171
-130.121
-93.5619
-55.2495
-9.58556
34.7613
100.878
146.849
192.507
236.296
274.52
304.529
323.384
330.745
327.795
315.888
298.082
277.42
255.714
234.047
213.16
193.194
174.232
156.08
138.538
121.256
104.131
86.9431
69.7814
53.07
38.3347
26.5049
16.812
8.91141
2.82258
-1.40347
-3.84132
-4.59656
-3.75701
-1.32531
2.71115
8.76789
17.368
32.2693
56.2661
66.121
18.0228
-36.1981
-96.0667
-158.341
-222.399
-286.624
-348.421
-406.246
-459.054
-505.6
-545.505
-578.637
-604.798
-624.016
-636.486
-642.501
-641.841
-634.671
-620.76
-600.392
-573.621
-541.664
-505.774
-468.426
-433.041
-399.75
-366.491
-332.965
-299.445
-265.884
-232.199
-198.331
-164.106
-129.316
-92.9612
-54.8156
-9.3261
34.561
109.403
151.279
192.693
231.723
265.154
291.363
308.432
316.206
315.234
306.438
291.959
273.974
254.172
233.765
213.598
194.055
175.291
157.253
139.791
122.647
105.681
88.7419
71.897
55.5312
40.8523
28.7718
18.8486
10.751
4.47645
0.0674575
-2.54371
-3.46158
-2.77172
-0.475377
3.44857
9.41678
17.9507
32.7307
55.7678
85.5591
45.0178
-1.30802
-52.3558
-106.083
-162.455
-219.836
-276.45
-331.005
-382.35
-429.343
-471.292
-507.7
-538.197
-562.508
-580.616
-592.397
-597.51
-595.863
-587.322
-572.04
-550.208
-522.804
-491.115
-457.281
-424.227
-392.536
-360.699
-328.36
-295.8
-263.034
-230
-196.66
-162.858
-128.399
-92.3127
-54.3951
-9.19758
34.2463
121.804
156.518
191.149
224.364
253.192
276.345
292.212
300.353
300.981
294.763
283.26
268.145
250.814
232.373
213.637
195.072
176.92
159.248
141.995
125.005
108.17
91.4046
74.7821
58.662
44.0337
31.7561
21.6025
13.2658
6.73597
2.06019
-0.81743
-1.9885
-1.52916
0.564361
4.32079
10.1557
18.5789
33.1625
55.2496
90.9398
54.94
13.5988
-32.2237
-80.5777
-131.877
-184.746
-237.607
-289.467
-339.176
-385.597
-427.932
-465.495
-497.731
-524.218
-544.716
-558.853
-566.488
-567.443
-561.692
-549.335
-530.635
-506.397
-477.838
-446.801
-415.729
-385.419
-354.811
-323.544
-291.888
-259.901
-227.535
-194.756
-161.421
-127.346
-91.5846
-53.9604
-9.15164
33.6922
123.197
153.926
184.682
214.217
239.912
260.866
275.831
284.24
286.13
282.05
273.125
260.635
245.685
229.228
212.029
194.587
177.215
160.074
143.191
126.495
109.923
93.4366
77.1188
61.3032
46.808
34.4183
24.0773
15.5376
8.79041
3.88658
0.784226
-0.598628
-0.332113
1.58881
5.19838
10.9103
19.2184
33.5768
54.6969
93.5493
61.6093
24.7504
-16.0937
-59.2
-105.273
-153.048
-201.26
-249.185
-295.78
-340.074
-381.302
-418.718
-451.672
-479.644
-502.218
-518.988
-529.734
-534.164
-532.11
-523.558
-508.722
-488.247
-463.243
-435.311
-406.516
-377.809
-348.555
-318.449
-287.756
-256.582
-224.907
-192.711
-159.867
-126.203
-90.8075
-53.532
-9.21645
32.9069
122.178
149.354
176.75
203.248
226.433
245.645
259.862
268.425
271.272
268.89
262.114
251.937
239.227
224.774
209.257
193.151
176.795
160.406
144.076
127.814
111.604
95.4541
79.4645
63.9514
49.6078
37.1467
26.642
17.9162
10.9617
5.83185
2.49918
0.892086
0.948593
2.67886
6.12409
11.6954
19.8674
33.9555
54.0921
92.7915
63.9765
30.6352
-6.33055
-45.2628
-87.0867
-130.67
-174.913
-219.331
-262.99
-305.057
-344.844
-381.591
-414.615
-443.331
-467.212
-485.775
-498.627
-505.429
-505.96
-500.192
-488.328
-470.911
-448.925
-423.749
-397.103
-369.981
-342.074
-313.146
-283.44
-253.102
-222.138
-190.546
-158.215
-124.989
-89.9937
-53.1211
-9.40353
31.9045
118.649
143.124
167.931
192.038
213.225
231.03
244.596
253.206
256.771
255.725
250.712
242.517
231.825
219.273
205.438
190.744
175.521
160.018
144.375
128.659
112.906
97.1642
81.5528
66.3736
52.2262
39.7586
29.1382
20.2584
13.1193
7.77853
4.22487
2.39979
2.24995
3.79098
7.07024
12.4938
20.5153
34.29
53.4414
90.4907
64.3162
33.9699
0.352036
-34.9558
-73.0009
-112.744
-153.227
-194.133
-234.67
-274.113
-311.888
-347.297
-379.672
-408.403
-432.917
-452.656
-467.179
-476.114
-479.164
-476.201
-467.345
-453.019
-434.056
-411.641
-387.217
-361.777
-335.282
-307.582
-278.91
-249.446
-219.227
-188.268
-156.474
-123.712
-89.1484
-52.7283
-9.7062
30.6974
114.017
136.239
158.893
181.016
200.542
217.176
230.151
238.723
242.82
242.812
239.226
232.701
223.782
212.979
200.769
187.508
173.5
158.995
144.16
129.102
113.9
98.6374
83.4526
68.6364
54.7228
42.3024
31.6079
22.6015
15.2973
9.75909
5.99183
3.95148
3.59374
4.94087
8.04648
13.3101
21.1621
34.5795
52.7495
87.1252
63.1533
35.3287
4.53094
-27.7107
-62.5045
-98.9081
-136.056
-173.773
-211.365
-248.226
-283.892
-317.728
-349.114
-377.457
-402.158
-422.627
-438.37
-448.95
-454.01
-453.346
-447.035
-435.406
-419.163
-399.306
-377.033
-353.285
-328.218
-301.772
-274.167
-245.612
-216.172
-185.876
-154.649
-122.378
-88.2767
-52.3506
-10.1114
29.3086
108.706
129.062
149.919
170.376
188.497
204.131
216.559
225.037
229.51
230.308
227.871
222.736
215.349
206.116
195.425
183.564
170.798
157.357
143.415
129.103
114.533
99.8169
85.1086
70.6925
57.0538
44.7357
34.0141
24.9149
17.4706
11.753
7.78348
5.53373
4.96974
6.121
9.04759
14.1403
21.8039
34.8227
52.017
83.1858
61.1008
35.4494
7.09266
-22.4959
-54.448
-87.887
-122.032
-156.806
-191.598
-225.913
-259.378
-291.429
-321.526
-349.104
-373.569
-394.334
-410.868
-422.706
-429.463
-430.85
-426.871
-417.756
-404.078
-386.671
-366.517
-344.487
-320.876
-295.711
-269.209
-241.596
-212.967
-183.367
-152.738
-120.989
-87.3841
-51.9876
-10.6092
27.7698
103.104
121.869
141.194
160.22
177.132
191.888
203.809
212.149
216.88
218.297
216.782
212.796
206.715
198.868
189.568
179.04
167.503
155.157
142.166
128.672
114.805
100.697
86.5154
72.5378
59.2149
47.0516
36.3509
27.1935
19.6357
13.7579
9.59849
7.14611
6.37799
7.33126
10.0729
14.9828
22.4389
35.0194
51.2457
78.9345
58.4809
34.715
8.47877
-18.7991
-48.2627
-79.087
-110.561
-142.664
-174.867
-206.765
-238.069
-268.284
-296.939
-323.523
-347.477
-368.22
-385.218
-397.964
-406.071
-409.168
-407.2
-400.318
-388.971
-373.842
-355.73
-335.413
-313.271
-289.406
-264.035
-237.396
-209.61
-180.738
-150.741
-119.546
-86.4743
-51.6431
-11.1937
26.1055
97.4143
114.811
132.807
150.591
166.449
180.421
191.861
200.035
204.931
206.821
206.043
203.003
198.029
191.39
183.342
174.057
163.704
152.451
140.443
127.816
114.709
101.265
87.6558
74.1549
61.1891
49.2313
38.6
29.4222
21.7794
15.7635
11.4292
8.78284
7.81444
8.56873
11.1202
15.8354
23.0646
35.17
50.4389
74.5558
55.5327
33.4239
9.05276
-16.1973
-43.4629
-71.9627
-101.04
-130.725
-160.544
-190.167
-219.376
-247.744
-274.873
-300.305
-323.52
-343.975
-361.139
-374.492
-383.642
-388.17
-387.953
-383.068
-373.852
-360.849
-344.701
-326.08
-305.413
-282.863
-258.647
-233.012
-206.098
-177.987
-148.654
-118.049
-85.5495
-51.3216
-11.8627
24.3325
91.7783
107.979
124.81
141.493
156.424
169.687
180.667
188.659
193.647
195.895
195.704
193.443
189.399
183.805
176.87
168.722
159.491
149.305
138.285
126.555
114.25
101.515
88.5208
75.535
62.9661
51.2623
40.7485
31.5893
23.8923
17.7619
13.2695
10.4395
9.27589
9.83089
12.187
16.6959
23.6785
35.2755
49.5995
70.1702
52.4099
31.7708
9.0528
-14.4023
-39.7151
-66.1428
-93.0703
-120.566
-148.209
-175.717
-202.936
-229.501
-255.076
-279.264
-301.596
-321.564
-338.66
-352.364
-362.28
-367.971
-369.24
-366.103
-358.803
-347.76
-333.474
-316.516
-297.319
-276.09
-253.049
-228.442
-202.432
-175.112
-146.477
-116.497
-84.6107
-51.027
-12.6135
22.4602
86.2769
101.427
117.219
132.921
147.024
159.641
170.182
177.976
183.003
185.517
185.793
184.168
180.906
176.21
170.254
163.135
154.946
145.783
135.739
124.916
113.438
101.445
89.1029
76.6688
64.5354
53.1309
42.7819
33.6814
25.9624
19.7434
15.1118
12.1104
10.758
11.1145
13.2708
17.5617
24.2785
35.3368
48.7311
65.8551
49.2207
29.8959
8.65556
-13.1983
-36.7654
-61.3374
-86.3305
-111.845
-137.5
-163.053
-188.399
-213.229
-237.263
-260.164
-281.515
-300.844
-317.681
-331.517
-341.953
-348.563
-351.078
-349.46
-343.87
-334.622
-322.092
-306.749
-289.005
-269.098
-247.245
-223.691
-198.61
-172.113
-144.208
-114.889
-83.6578
-50.762
-13.4425
20.4963
80.9647
95.1751
110.041
124.858
138.214
150.234
160.357
167.944
172.967
175.675
176.321
175.217
172.609
168.68
163.58
157.382
150.15
141.952
132.853
122.93
112.291
101.063
89.4015
77.5508
65.8885
54.8261
44.6872
35.6861
27.9787
21.6983
16.9482
13.7893
12.256
12.4158
14.3684
18.43
24.8623
35.3561
47.8371
61.66
46.0388
27.8973
7.98751
-12.4296
-34.4285
-57.3275
-80.5772
-104.295
-128.129
-151.88
-175.478
-198.661
-221.2
-242.806
-263.115
-281.702
-298.13
-311.922
-322.673
-329.977
-333.513
-333.195
-329.114
-321.493
-310.603
-296.81
-280.495
-261.9
-241.243
-218.76
-194.635
-168.989
-141.848
-113.227
-82.6911
-50.5262
-14.3461
18.4492
75.8727
89.2379
103.264
117.281
129.954
141.421
151.146
158.518
163.506
166.35
167.288
166.608
164.549
161.274
156.919
151.539
145.177
137.876
129.676
120.632
110.83
100.379
89.4195
78.1785
67.0189
56.3377
46.4522
37.5908
29.9295
23.6164
18.7702
15.4694
13.7645
13.7307
15.4762
19.298
25.4278
35.3352
46.9219
57.6167
42.9148
25.8454
7.14143
-11.9793
-32.559
-53.9439
-75.615
-97.6985
-119.871
-141.966
-163.939
-185.568
-206.668
-226.998
-246.238
-264.013
-279.923
-293.523
-304.411
-312.214
-316.567
-317.346
-314.582
-308.423
-299.049
-286.735
-271.81
-254.513
-235.052
-213.654
-190.507
-165.74
-139.397
-111.509
-81.7101
-50.32
-15.3172
16.3278
71.017
83.617
96.879
110.164
122.21
133.16
142.506
149.66
154.587
157.523
158.689
158.356
156.753
154.035
150.324
145.666
140.088
133.613
126.26
118.062
109.081
99.4076
89.1621
78.552
67.9234
57.6583
48.0662
39.3837
31.8032
25.4873
20.5687
17.1432
15.2776
15.0544
16.5905
20.1626
25.9728
35.2767
45.9895
53.7459
39.8809
23.7889
6.18478
-11.7596
-31.0487
-51.0596
-71.2942
-91.8886
-112.545
-133.115
-153.58
-173.753
-193.483
-212.572
-230.743
-247.664
-262.976
-276.267
-287.15
-295.274
-300.264
-301.951
-300.322
-295.462
-287.478
-276.56
-262.979
-246.955
-228.685
-208.382
-186.231
-162.369
-136.854
-109.737
-80.7154
-50.1419
-16.3489
14.1415
66.4042
78.3079
90.8689
103.48
114.949
125.413
134.397
141.331
146.178
149.169
150.511
150.46
149.239
146.995
143.841
139.817
134.94
129.218
122.654
115.259
107.075
98.1692
88.641
78.6755
68.6
58.7817
49.5196
41.0536
33.5888
27.3002
22.3344
18.803
16.7888
16.3817
17.7069
21.0204
26.4958
35.1835
45.0441
50.0584
36.9596
21.766
5.16652
-11.7017
-29.8151
-48.5705
-67.4962
-86.7298
-105.996
-125.164
-144.236
-163.048
-181.485
-199.38
-216.496
-232.545
-247.201
-260.094
-270.853
-279.149
-284.613
-287.037
-286.373
-282.658
-275.937
-266.324
-254.03
-239.248
-222.156
-202.951
-181.811
-158.879
-134.221
-107.91
-79.7057
-49.9904
-17.4328
11.9022
62.035
73.2999
85.2141
97.2033
108.135
118.143
126.78
133.494
138.249
141.267
142.743
142.921
142.018
140.176
137.503
134.034
129.78
124.74
118.903
112.263
104.842
96.6858
87.8701
78.556
69.0504
59.7043
50.8047
42.5906
35.2752
29.0446
24.0575
20.4402
18.2908
17.7069
18.8207
21.8682
26.9946
35.0586
44.0912
46.5583
34.1658
19.7986
4.12573
-11.7578
-28.7916
-46.3977
-64.1234
-82.1124
-100.103
-117.981
-135.764
-153.311
-170.528
-187.284
-203.373
-218.546
-232.515
-244.942
-255.484
-263.826
-269.621
-272.629
-272.772
-270.053
-264.467
-256.064
-244.993
-231.414
-215.482
-197.373
-177.255
-155.271
-131.501
-106.029
-78.6811
-49.8633
-18.5602
9.62148
57.9063
68.5818
79.8976
91.3103
101.738
111.317
119.621
126.118
130.769
133.79
135.367
135.732
135.095
133.595
131.335
128.351
124.649
120.223
115.05
109.113
102.415
94.9814
86.8651
78.203
69.2788
60.4251
51.9159
43.9859
36.8524
30.7101
25.7281
22.046
19.7762
19.0238
19.927
22.7022
27.4682
34.9052
43.1354
43.2469
31.508
17.905
3.08771
-11.8879
-27.9291
-44.4772
-61.1027
-77.9477
-94.7653
-111.455
-128.045
-144.413
-160.488
-176.163
-191.262
-205.571
-218.836
-230.751
-241.001
-249.285
-255.287
-258.741
-259.549
-257.685
-253.111
-245.819
-235.901
-223.479
-208.68
-191.659
-172.57
-151.553
-128.694
-104.095
-77.6402
-49.7573
-19.7215
7.31137
54.0117
64.1419
74.9016
85.7768
95.7326
104.904
112.889
119.172
123.712
126.719
128.37
128.885
128.469
127.26
125.357
122.795
119.581
115.703
111.134
105.846
99.8261
93.0827
85.6465
77.6298
69.2914
60.9447
52.8492
45.2319
38.3109
32.2864
27.3362
23.6112
21.237
20.3258
21.0203
23.5189
27.9149
34.7268
42.1816
40.1217
28.9898
16.0972
2.07346
-12.0636
-27.1874
-42.7605
-58.3719
-74.1633
-89.9005
-105.495
-120.982
-136.256
-151.262
-165.914
-180.067
-193.532
-206.087
-217.458
-227.36
-235.503
-241.605
-245.385
-246.728
-245.592
-241.908
-235.627
-226.787
-215.469
-201.772
-185.825
-167.766
-147.729
-125.805
-102.11
-76.5818
-49.6679
-20.9065
4.98509
50.3448
59.967
70.208
80.5797
90.0915
98.8766
106.556
112.629
117.052
120.031
121.733
122.369
122.14
121.178
119.582
117.387
114.602
111.213
107.189
102.495
97.107
91.0169
84.2358
76.851
69.0967
61.2662
53.6027
46.323
39.6426
33.7642
28.8721
25.1267
22.6647
21.606
22.0952
24.3145
28.3337
34.5267
41.235
37.1789
26.6129
14.3817
1.09691
-12.2619
-26.5359
-41.2064
-55.8815
-70.6985
-85.4391
-100.022
-114.488
-128.746
-142.754
-156.446
-169.695
-182.343
-194.194
-205.005
-214.515
-222.452
-228.564
-232.566
-234.328
-233.8
-230.894
-225.524
-217.684
-207.412
-194.779
-179.887
-162.855
-143.806
-122.838
-100.073
-75.5041
-49.5903
-22.1038
2.65665
46.8962
56.0444
65.799
75.6979
84.7909
93.2101
100.596
106.462
110.766
113.706
115.442
116.175
116.1
115.348
114.017
112.143
109.735
106.78
103.246
99.0931
94.2885
88.8108
82.6542
75.8828
68.7061
61.3953
54.1767
47.2552
40.8402
35.1344
30.3261
26.5829
24.0509
22.8568
23.1458
25.0853
28.7236
34.3083
40.3006
34.4133
24.3757
12.7633
0.16859
-12.4678
-25.9505
-39.7838
-53.591
-67.5076
-81.3248
-94.9715
-108.492
-121.806
-134.884
-147.674
-160.067
-171.929
-183.09
-193.333
-202.423
-210.103
-216.15
-220.283
-222.366
-222.337
-220.101
-215.545
-208.624
-199.337
-187.725
-173.863
-157.849
-139.794
-119.796
-97.9878
-74.4051
-49.519
-23.3033
0.339022
43.6561
52.3615
61.6595
71.1121
79.8097
87.881
94.9847
100.649
104.831
107.724
109.48
110.289
110.344
109.772
108.669
107.074
104.997
102.426
99.3306
95.6675
91.3984
86.4912
80.9251
74.7441
68.1324
61.3394
54.5736
48.026
41.898
36.3893
31.6892
27.9706
25.387
24.0707
24.1661
25.8274
29.0838
34.0748
39.3832
31.8184
22.2761
11.2436
-0.704904
-12.6668
-25.4126
-38.4668
-51.4682
-64.5487
-77.5119
-90.2912
-102.936
-115.372
-127.581
-139.524
-151.11
-162.222
-172.711
-182.386
-191.037
-198.424
-204.345
-208.534
-210.849
-211.222
-209.557
-205.723
-199.639
-191.273
-180.635
-167.773
-152.762
-135.701
-116.687
-95.8547
-73.2829
-49.447
-24.4927
-1.95335
40.6156
48.9049
57.7732
66.8053
75.128
82.8671
89.6997
95.1674
99.2279
102.067
103.831
104.7
104.863
104.445
103.539
102.186
100.4
98.1694
95.4649
92.2435
88.4628
84.0831
79.0717
73.4538
67.3901
61.1077
54.7972
48.6352
42.8119
37.5216
32.953
29.281
26.664
25.2397
25.15
26.537
29.4136
33.8291
38.4871
29.3869
20.3105
9.82314
-1.51933
-12.8496
-24.9074
-37.2343
-49.4854
-61.7894
-73.9591
-85.9335
-97.7634
-109.385
-120.786
-131.936
-142.76
-153.158
-162.998
-172.114
-180.315
-187.384
-193.13
-197.313
-199.782
-200.472
-199.287
-196.086
-190.76
-183.25
-173.534
-161.635
-147.61
-131.54
-113.515
-93.6763
-72.1343
-49.3677
-25.6606
-4.20686
37.7651
45.663
54.1255
62.7591
70.726
78.1484
84.7208
89.998
93.9369
96.718
98.4797
99.396
99.6492
99.3624
98.6265
97.4856
95.9536
94.0236
91.6668
88.8421
85.5049
81.61
77.1155
72.031
66.4943
60.7112
54.854
49.084
43.5793
38.5263
34.1098
30.5052
27.8736
26.3562
26.0913
27.2102
29.7125
33.5742
37.6165
27.112
18.4748
8.50046
-2.27221
-13.0104
-24.4236
-36.0707
-47.6219
-59.2025
-70.6338
-81.8606
-92.9334
-103.796
-114.443
-124.853
-134.959
-144.679
-153.898
-162.467
-170.216
-176.948
-182.485
-186.609
-189.169
-190.1
-189.314
-186.661
-182.016
-175.293
-166.446
-155.475
-142.41
-127.32
-110.288
-91.4538
-70.9577
-49.2728
-26.7951
-6.40738
35.0951
42.6236
50.7023
58.9577
66.5865
73.7068
80.0286
85.1213
88.9399
91.6596
93.4123
94.3643
94.6931
94.5186
93.9303
92.9734
91.6645
89.9991
87.9514
85.4817
82.5453
79.0933
75.0776
70.4942
65.4609
60.1617
54.7514
49.3754
44.199
39.3985
35.1529
31.6353
29.0077
27.4124
26.9837
27.8433
29.9796
33.3122
36.775
24.9867
16.7634
7.27387
-2.96222
-13.1438
-23.9521
-34.9627
-45.8596
-56.765
-67.5078
-78.0388
-88.4075
-98.5647
-108.509
-118.225
-127.659
-136.737
-145.362
-153.4
-160.701
-167.084
-172.385
-176.409
-179.005
-180.113
-179.652
-177.473
-173.434
-167.432
-159.398
-149.311
-137.18
-123.054
-107.013
-89.1915
-69.7497
-49.155
-27.8861
-8.54105
32.5961
39.7753
47.4904
55.3873
62.6938
69.5259
75.6067
80.52
84.2201
86.8764
88.6144
89.5929
89.9844
89.9062
89.446
88.6499
87.5368
86.1046
84.3305
82.1776
79.6018
76.5529
72.9782
68.8632
64.3066
59.4723
54.498
49.5143
44.6718
40.1356
36.0768
32.6644
30.0583
28.4009
27.8213
28.4326
30.2145
33.045
35.9654
23.0035
15.172
6.13991
-3.5889
-13.2471
-23.4865
-33.8995
-44.1846
-54.4582
-64.559
-74.4412
-84.1547
-93.6537
-102.943
-112.011
-120.812
-129.286
-137.345
-144.871
-151.731
-157.762
-162.807
-166.699
-169.287
-170.517
-170.317
-168.54
-165.039
-159.691
-152.415
-143.166
-131.936
-118.758
-103.698
-86.8905
-68.5083
-49.0071
-28.9212
-10.5956
30.2588
37.1075
44.4781
52.0336
59.0329
65.5895
71.4385
76.1782
79.7618
82.3534
84.0724
85.0701
85.5142
85.5186
85.1695
84.5138
83.5721
82.3452
80.8133
78.9421
76.6897
74.0063
70.8357
67.1553
63.0471
58.6562
54.1042
49.5065
44.9996
40.736
36.8774
33.5859
31.0182
29.3147
28.5983
28.9742
30.4164
32.7743
35.1899
21.1551
13.6947
5.09582
-4.15344
-13.3182
-23.0222
-32.8732
-42.584
-52.2665
-61.7673
-71.0432
-80.1456
-89.032
-97.7094
-106.172
-114.381
-122.284
-129.806
-136.842
-143.272
-148.95
-153.729
-157.463
-160.008
-161.313
-161.317
-159.881
-156.85
-152.096
-145.521
-137.063
-126.699
-114.442
-100.354
-84.5549
-67.2308
-48.8194
-29.8911
-12.5589
28.075
34.61
41.6532
48.8835
55.5897
61.8827
67.5092
72.0804
75.5502
78.0765
79.7729
80.7837
81.2717
81.3474
81.0946
80.5616
79.7704
78.7241
77.4061
75.7854
73.8225
71.4685
68.6663
65.387
61.6979
57.7269
53.5804
49.3595
45.1862
41.1999
37.5514
34.3951
31.8812
30.1474
29.3093
29.465
30.5848
32.5009
34.45
19.4348
12.326
4.13805
-4.65741
-13.3561
-22.5547
-31.8769
-41.048
-50.1761
-59.1149
-67.825
-76.3564
-84.671
-92.7779
-100.675
-108.329
-115.696
-122.709
-129.277
-135.291
-140.619
-145.128
-148.686
-151.158
-152.5
-152.66
-151.508
-148.889
-144.668
-138.738
-131.023
-121.485
-110.124
-96.9862
-82.1884
-65.9148
-48.5861
-30.7848
-14.4197
26.0359
32.2729
39.0049
45.9254
52.3515
58.3918
63.8045
68.2128
71.5715
74.0322
75.7035
76.7226
77.2465
77.384
77.2154
76.7898
76.1308
75.2431
74.1138
72.7152
71.0104
68.9524
66.4847
63.5739
60.2744
56.6982
52.938
49.0813
45.2362
41.5286
38.0976
35.0877
32.6421
30.8931
29.9492
29.9014
30.7186
32.2252
33.7461
17.8355
11.0606
3.26257
-5.10253
-13.3606
-22.0822
-30.9057
-39.5693
-48.1767
-56.5892
-64.7695
-72.7673
-80.548
-88.1217
-95.49
-102.624
-109.488
-116.021
-122.142
-127.756
-132.743
-136.978
-140.349
-142.727
-144.074
-144.349
-143.432
-141.17
-137.426
-132.087
-125.067
-116.313
-105.815
-93.6073
-79.7943
-64.5591
-48.2993
-31.5942
-16.1682
24.1336
30.0874
36.5228
43.1477
49.306
55.1043
60.3111
64.5626
67.8129
70.2085
71.8522
72.8753
73.4295
73.6198
73.5248
73.1933
72.6504
71.9023
70.9394
69.7374
68.2622
66.4695
64.3043
61.73
58.7905
55.5833
52.1884
48.681
45.1556
41.7249
38.5155
35.6612
33.2965
31.5469
30.5136
30.2807
30.817
31.9473
33.0781
16.3507
9.89316
2.46556
-5.49122
-13.3324
-21.6027
-29.9557
-38.1417
-46.2599
-54.1781
-61.8625
-69.3609
-76.6423
-83.7178
-90.592
-97.2401
-103.63
-109.711
-115.41
-120.64
-125.295
-129.26
-132.435
-134.702
-136.03
-136.386
-135.66
-133.706
-130.388
-125.587
-119.213
-111.202
-101.531
-90.2256
-77.3772
-63.1627
-47.9529
-32.3111
-17.796
22.3603
28.0448
34.1973
40.5394
46.4418
52.0081
57.0169
61.117
64.2618
66.593
68.2079
69.2318
69.8106
70.0463
70.0155
69.7668
69.3256
68.7007
67.8845
66.856
65.5847
64.029
62.1362
59.8682
57.2594
54.3949
51.3431
48.1678
44.9511
41.7926
38.8062
36.1143
33.8412
32.1049
30.9988
30.5999
30.8789
31.6665
32.4449
14.9737
8.81809
1.74299
-5.82601
-13.272
-21.1153
-29.0237
-36.7589
-44.4167
-51.8708
-59.0904
-66.1214
-72.936
-79.5464
-85.9581
-92.1511
-98.0974
-103.752
-109.051
-113.916
-118.251
-121.951
-124.926
-127.072
-128.361
-128.77
-128.198
-126.508
-123.567
-119.256
-113.479
-106.167
-97.2867
-86.8513
-74.942
-61.7242
-47.5416
-32.9283
-19.2949
20.7085
26.1364
32.019
38.0909
43.7482
49.0922
53.9107
57.8643
60.9069
63.1745
64.7595
65.7809
66.3799
66.6551
66.6802
66.504
66.1525
65.6355
64.9486
64.0735
62.9828
61.6384
59.9901
57.9995
55.6933
53.145
50.4132
47.5516
44.6305
41.737
38.9722
36.4467
34.2744
32.5641
31.4017
30.857
30.9033
31.3819
31.8447
13.6984
7.83037
1.09075
-6.10954
-13.1807
-20.6196
-28.1073
-35.4176
-42.6412
-49.659
-56.4422
-63.0354
-69.4129
-75.5883
-81.5682
-87.3354
-92.866
-98.121
-103.042
-107.56
-111.588
-115.029
-117.806
-119.823
-121.058
-121.497
-121.048
-119.584
-116.976
-113.108
-107.883
-101.225
-93.0938
-83.494
-72.4936
-60.2448
-47.0605
-33.44
-20.6593
19.1713
24.3546
29.9793
35.7928
41.2153
46.3459
50.9813
54.7936
57.737
59.9419
61.4963
62.5131
63.1281
63.4371
63.5113
63.3987
63.1258
62.7041
62.1308
61.391
60.4601
59.3034
57.8738
56.1335
54.1029
51.8451
49.41
46.8424
44.2018
41.5636
39.0167
36.6597
34.5953
32.9226
31.7201
31.0499
30.889
31.0921
31.275
12.519
6.92474
0.504845
-6.34473
-13.06
-20.1155
-27.2053
-34.1139
-40.9286
-47.5358
-53.9091
-60.0919
-66.0605
-71.8286
-77.4044
-82.7733
-87.9146
-92.7941
-97.3597
-101.549
-105.284
-108.477
-111.057
-112.941
-114.113
-114.562
-114.21
-112.938
-110.624
-107.156
-102.437
-96.3892
-88.966
-80.1636
-70.0374
-58.7247
-46.5071
-33.8424
-21.8842
17.7418
22.6916
28.07
33.6359
38.8336
43.7594
48.2185
51.8947
54.7417
56.8851
58.4085
59.4184
60.0463
60.3845
60.5014
60.4444
60.2407
59.9026
59.4293
58.8085
58.0188
57.0286
55.7942
54.2789
52.498
50.5056
48.3439
46.0498
43.6736
41.2794
38.9446
36.7557
34.8044
33.1796
31.9524
31.1772
30.8351
30.7955
30.7327
11.4293
6.09647
-0.0187945
-6.53443
-12.9116
-19.6033
-26.3161
-32.8451
-39.2743
-45.4946
-51.483
-57.2805
-62.8657
-68.2531
-73.4512
-78.4476
-83.2245
-87.7519
-91.9833
-95.8625
-99.319
-102.273
-104.662
-106.413
-107.513
-107.959
-107.682
-106.573
-104.518
-101.41
-97.1541
-91.6728
-84.9148
-76.869
-67.5794
-57.1658
-45.8794
-34.132
-22.9665
16.4137
21.1405
26.2832
31.6123
36.5943
41.3233
45.6128
49.1574
51.9112
53.9945
55.4865
56.488
57.1257
57.4886
57.6427
57.6346
57.4916
57.2268
56.8413
56.3253
55.6598
54.8169
53.7563
52.4429
50.8872
49.1361
47.2249
45.1839
43.0547
40.8917
38.7611
36.7382
34.9034
33.3354
32.0979
31.238
30.7404
30.49
30.2143
10.4242
5.34067
-0.484056
-6.6817
-12.7374
-19.0838
-25.4394
-31.6095
-37.6743
-43.5305
-49.1565
-54.5926
-59.8186
-64.8493
-69.6941
-74.3424
-78.7786
-82.9764
-86.8942
-90.4818
-93.6748
-96.4018
-98.6055
-100.225
-101.249
-101.681
-101.461
-100.49
-98.6622
-95.8771
-92.0444
-87.0867
-80.9508
-73.6195
-65.125
-55.5709
-45.1763
-34.3074
-23.9042
15.1807
19.6945
24.6117
29.7137
34.4889
39.0289
43.1552
46.5728
49.2362
51.2605
52.7209
53.7128
54.3578
54.7417
54.928
54.9626
54.8727
54.6722
54.3637
53.9395
53.3835
52.6706
51.7642
50.631
49.278
47.7452
46.0624
44.2539
42.3541
40.4082
38.4726
36.6118
34.8951
33.3915
32.157
31.2318
30.6039
30.1736
29.7161
9.49827
4.6529
-0.894735
-6.7892
-12.5394
-18.5577
-24.5746
-30.4051
-36.1255
-41.6386
-46.924
-52.0206
-56.9099
-61.6068
-66.1211
-70.4436
-74.5616
-78.4512
-82.0752
-85.3885
-88.3335
-90.8452
-92.872
-94.3621
-95.3083
-95.7187
-95.5419
-94.6875
-93.059
-90.5637
-87.1158
-82.6405
-77.0836
-70.4228
-62.6805
-53.9431
-44.399
-34.3681
-24.6969
14.037
18.3473
23.0484
27.9328
32.5096
36.868
40.8369
44.1321
46.7077
48.6745
50.1031
51.084
51.7341
52.1356
52.3499
52.4218
52.3783
52.234
51.9928
51.649
51.1892
50.5907
49.8208
48.8481
47.6768
46.3408
44.8649
43.2689
41.5806
39.8373
38.0863
36.3819
34.7835
33.3502
32.1306
31.1586
30.4248
29.844
29.2338
8.64658
4.02846
-1.25446
-6.85992
-12.3195
-18.0259
-23.7216
-29.2304
-34.6259
-39.8152
-44.78
-49.5576
-54.1311
-58.5157
-62.7209
-66.7392
-70.5597
-74.1613
-77.5107
-80.5671
-83.2788
-85.5872
-87.4459
-88.8114
-89.6798
-90.0632
-89.9175
-89.1621
-87.7089
-85.473
-82.3742
-78.3418
-73.3214
-67.2871
-60.2521
-52.2863
-43.5492
-34.3157
-25.3458
12.977
17.0926
21.5869
26.2624
30.6489
34.8326
38.65
41.8268
44.3176
46.2279
47.6249
48.5938
49.2467
49.663
49.9013
50.0055
50.0025
49.9072
49.7249
49.4513
49.0754
48.5776
47.9282
47.098
46.0888
44.9294
43.6405
42.2375
40.743
39.1873
37.6095
36.0549
34.5734
33.2149
32.0208
31.0191
30.2026
29.4988
28.7633
7.86431
3.46341
-1.56691
-6.89671
-12.0797
-17.4895
-22.8804
-28.0847
-33.1727
-38.0568
-42.7196
-47.1976
-51.4751
-55.5671
-59.4833
-63.2175
-66.7603
-70.0931
-73.1859
-76.0023
-78.4954
-80.6128
-82.3129
-83.5593
-84.3513
-84.7042
-84.5809
-83.9094
-82.6103
-80.6065
-77.824
-74.1964
-69.671
-64.2189
-57.8454
-50.6053
-42.6302
-34.1526
-25.8532
11.9955
15.9249
20.221
24.6963
28.8998
32.9156
36.5869
39.6493
42.0578
43.9129
45.2782
46.2341
46.888
47.3164
47.5752
47.7075
47.7397
47.687
47.5557
47.3434
47.0409
46.6312
46.0878
45.3835
44.5186
43.517
42.3961
41.1677
39.8497
38.4667
37.0503
35.6378
34.2705
32.9898
31.8303
30.8146
29.9367
29.1359
28.3004
7.14691
2.95354
-1.83543
-6.90233
-11.8219
-16.95
-22.0512
-26.9672
-31.7645
-36.3604
-40.7392
-44.9356
-48.9354
-52.7533
-56.3993
-59.8681
-63.1519
-66.234
-69.0878
-71.6801
-73.9692
-75.9077
-77.4589
-78.5924
-79.3106
-79.6313
-79.5237
-78.9234
-77.7601
-75.9637
-73.4671
-70.2087
-66.1379
-61.2244
-55.4666
-48.905
-41.6462
-33.8827
-26.2226
11.0876
14.8387
18.9449
23.2279
27.2558
31.1098
34.6403
37.5923
39.9207
41.7219
43.0555
43.9976
44.6509
45.0888
45.3651
45.5213
45.584
45.5683
45.4814
45.3222
45.0835
44.7506
44.3
43.7071
42.97
42.1089
41.1382
40.0669
38.9089
37.6837
36.4167
35.138
33.8812
32.68
31.5626
30.5468
29.6273
28.7531
27.8408
6.49003
2.49514
-2.06334
-6.87939
-11.5482
-16.4082
-21.2345
-25.8772
-30.3998
-34.7237
-38.8349
-42.7666
-46.5059
-50.0672
-53.4607
-56.6819
-59.724
-62.5726
-65.2038
-67.5876
-69.6865
-71.4582
-72.8703
-73.8977
-74.5457
-74.8338
-74.7366
-74.1973
-73.1536
-71.5426
-69.3041
-66.3813
-62.7267
-58.3089
-53.121
-47.1911
-40.6023
-33.5111
-26.4591
10.2485
13.8288
17.7529
21.8514
25.7104
29.4089
32.8036
35.6486
37.8993
39.6476
40.9497
41.8771
42.5283
42.9734
43.2643
43.4411
43.5299
43.5462
43.4975
43.3843
43.2009
42.9348
42.5654
42.0701
41.4459
40.7095
39.8725
38.9419
37.9281
36.8464
35.7168
34.5633
33.4124
32.2911
31.2219
30.2181
29.2746
28.3486
27.3808
5.88964
2.08438
-2.25369
-6.83052
-11.2602
-15.8654
-20.4309
-24.8145
-29.077
-33.1442
-37.0033
-40.6863
-44.1812
-47.5024
-50.6598
-53.6499
-56.4672
-59.0986
-61.5226
-63.7127
-65.6348
-67.2515
-68.5341
-69.4626
-70.0443
-70.3002
-70.2099
-69.7233
-68.785
-67.34
-65.3339
-62.7155
-59.4401
-55.477
-50.8142
-45.4691
-39.5043
-33.0438
-26.5683
9.47355
12.8905
16.6399
20.5612
24.2579
27.8066
31.0702
33.8116
35.9869
37.6833
38.954
39.8659
40.5134
40.9638
41.2667
41.4609
41.5721
41.6157
41.6
41.5265
41.3908
41.1826
40.8838
40.4739
39.949
39.3226
38.6043
37.799
36.9146
35.9627
34.9587
33.9214
32.8713
31.8294
30.813
29.8314
28.8796
27.921
26.9166
5.34182
1.71796
-2.40959
-6.75804
-10.9602
-15.3228
-19.6404
-23.7786
-27.7952
-31.6201
-35.2418
-38.6908
-41.9567
-45.053
-47.99
-50.7645
-53.3723
-55.8017
-58.0336
-60.0438
-61.8022
-63.2753
-64.438
-65.2749
-65.7946
-66.0195
-65.9334
-65.4924
-64.6479
-63.3511
-61.5542
-59.2111
-56.2804
-52.7321
-48.551
-43.745
-38.3587
-32.4876
-26.5571
8.75868
12.0191
15.601
19.3521
22.8926
26.297
29.434
32.0752
34.177
35.8225
37.0617
37.9575
38.6001
39.0539
39.3662
39.575
39.7053
39.7722
39.7847
39.7451
39.6504
39.4922
39.2548
38.9194
38.4814
37.9517
37.338
36.644
35.8751
35.04
34.1503
33.2202
32.2653
31.3013
30.341
29.3903
28.4434
27.4692
26.4452
4.84288
1.39249
-2.53386
-6.66433
-10.6498
-14.7816
-18.8639
-22.7694
-26.5534
-30.1495
-33.5475
-36.7767
-39.8277
-42.7137
-45.4448
-48.0184
-50.4314
-52.6731
-54.7266
-56.5704
-58.1774
-59.5179
-60.57
-61.3221
-61.7846
-61.9804
-61.8969
-61.4958
-60.7344
-59.5703
-57.9615
-55.8667
-53.2484
-50.0773
-46.3359
-42.0246
-37.1727
-31.8501
-26.4328
8.09982
11.2102
14.6314
18.219
21.6095
24.8748
27.8894
30.4336
32.4638
34.0593
35.2671
36.146
36.7823
37.2377
37.5574
37.7783
37.9244
38.011
38.0474
38.0368
37.9774
37.8622
37.6775
37.4068
37.0446
36.5996
36.078
35.4822
34.8159
34.0854
33.2991
32.4674
31.6018
30.7136
29.8114
28.8983
27.9678
26.9927
25.9638
4.38933
1.10491
-2.62915
-6.55158