/*--------------------------------*- C++ -*----------------------------------*\
  =========                 |
  \\      /  F ield         | OpenFOAM: The Open Source CFD Toolbox
   \\    /   O peration     | Website:  https://openfoam.org
    \\  /    A nd           | Version:  7
     \\/     M anipulation  |
\*---------------------------------------------------------------------------*/
FoamFile
{
    version     2.0;
    format      ascii;
    class       surfaceScalarField;
    location    "100";
    object      phi;
}
// * * * * * * * * * * * * * * * * * * * * * * * * * * * * * * * * * * * * * //

dimensions      [0 3 -1 0 0 0 0];

internalField   nonuniform List<scalar> 
21254
(
-0.22776
0.247425
-0.0196648
0.269482
-0.0220574
0.288607
-0.019125
0.305767
-0.0171598
0.322057
-0.0162897
0.335223
-0.0131664
0.345758
-0.0105345
0.354429
-0.00867157
0.360335
-0.00590547
0.364506
-0.00417136
0.36718
-0.00267373
0.368264
-0.00108405
0.368174
9.08122e-05
0.366726
0.00144772
0.363791
0.00293473
0.359638
0.00415339
0.354096
0.00554216
0.347277
0.00681908
0.339067
0.0082101
0.329727
0.00933967
0.318977
0.010751
0.307411
0.011566
0.295323
0.0120883
0.284015
0.011308
0.274673
0.00934196
0.266627
0.00804629
0.258765
0.00786212
0.250769
0.00799594
0.242304
0.00846532
0.233275
0.00902828
0.223653
0.00962307
0.213422
0.0102315
0.202512
0.0109106
0.190679
0.0118333
0.177393
0.0132881
0.161603
0.0157909
0.14101
0.0205987
0.110506
0.0305115
0.0941419
0.016482
-0.204718
-0.0230422
-0.180809
-0.0239085
-0.151536
-0.0292725
-0.11948
-0.0320559
-0.0857246
-0.0337558
-0.0508921
-0.0348325
-0.0166379
-0.0342542
0.0151368
-0.0317746
0.0441191
-0.0289821
0.0695849
-0.0254657
0.0912733
-0.0216883
0.109577
-0.0183032
0.124899
-0.015322
0.137645
-0.0127461
0.148545
-0.0108998
0.157913
-0.00936827
0.16623
-0.00831645
0.173724
-0.00749461
0.180707
-0.00698239
0.187295
-0.00658787
0.193656
-0.00636164
0.199777
-0.0061205
0.205582
-0.00580572
0.210431
-0.0048497
0.214135
-0.00370397
0.216977
-0.00284179
0.218952
-0.00197556
0.220184
-0.00123266
0.220665
-0.000480742
0.220334
0.000331362
0.219134
0.00119983
0.217208
0.00192496
0.214679
0.00252946
0.211602
0.00307595
0.207839
0.00376276
0.202971
0.00486673
0.19587
0.00710031
0.181305
0.0145597
0.160202
0.0211053
-0.207867
0.229318
-0.0411158
0.251275
-0.0440149
0.274238
-0.0420877
0.295688
-0.03861
0.316632
-0.0372332
0.336077
-0.0326119
0.35361
-0.0280673
0.369481
-0.0245427
0.383291
-0.0197153
0.395091
-0.0159706
0.404908
-0.0124911
0.41277
-0.00894619
0.418956
-0.00609488
0.423791
-0.00338671
0.42723
-0.000504521
0.428955
0.0024281
0.428874
0.00562381
0.427079
0.00861425
0.423051
0.0122376
0.417048
0.0153429
0.408651
0.0191489
0.398123
0.0220941
0.385443
0.0247684
0.371231
0.0255208
0.356731
0.0238417
0.342393
0.022384
0.328328
0.0219275
0.314768
0.0215566
0.301548
0.0216847
0.288536
0.0220407
0.275531
0.0226293
0.262375
0.0233875
0.248819
0.0244672
0.234645
0.0260079
0.219452
0.0284839
0.202237
0.033008
0.181722
0.0411184
0.149112
0.0631288
0.107959
0.0577128
-0.185959
-0.0449495
-0.162472
-0.0473956
-0.134976
-0.0567685
-0.105915
-0.0611171
-0.0750753
-0.0645952
-0.0428821
-0.0670257
-0.0108058
-0.0663304
0.0197144
-0.0622946
0.0474643
-0.0567319
0.072224
-0.0502253
0.0938132
-0.0432774
0.112547
-0.0370372
0.128831
-0.0316056
0.142885
-0.0267997
0.155162
-0.023177
0.165963
-0.0201696
0.175579
-0.0179322
0.18432
-0.0162349
0.192438
-0.0151008
0.200044
-0.0141934
0.207295
-0.0136132
0.214261
-0.0130863
0.220863
-0.0124082
0.226632
-0.0106191
0.231289
-0.00836102
0.235042
-0.00659473
0.237887
-0.00482131
0.239875
-0.00322023
0.241075
-0.00168058
0.241637
-0.000231135
0.241626
0.0012102
0.240982
0.00256875
0.239586
0.00392572
0.237404
0.00525694
0.234392
0.00677383
0.230309
0.00894925
0.22518
0.0122273
0.214343
0.0253905
0.194209
0.0412419
-0.201897
0.223623
-0.0628425
0.245545
-0.0659361
0.269214
-0.0657571
0.29089
-0.0602857
0.311548
-0.0578917
0.331353
-0.0524166
0.349021
-0.0457353
0.364955
-0.0404764
0.378716
-0.0334755
0.390569
-0.0278238
0.400542
-0.0224638
0.408812
-0.0172162
0.415181
-0.0124645
0.420095
-0.0083004
0.423284
-0.00369369
0.425466
0.000246483
0.426362
0.0047274
0.42634
0.00863642
0.425096
0.0134823
0.42259
0.017849
0.418724
0.0230143
0.413344
0.0274744
0.406424
0.0316882
0.39805
0.0338949
0.388716
0.0331759
0.378464
0.0326354
0.367171
0.0332206
0.354966
0.033762
0.342008
0.0346427
0.328388
0.0356611
0.314248
0.0367693
0.29962
0.0380165
0.284446
0.0396417
0.268552
0.0419015
0.251549
0.0454883
0.232447
0.0521108
0.210073
0.063495
0.176929
0.0962758
0.129326
0.105366
-0.180048
-0.0667981
-0.156162
-0.0712815
-0.127611
-0.0853194
-0.0979263
-0.0908019
-0.066938
-0.0955835
-0.0348202
-0.0991435
-0.00311204
-0.0980384
0.0264864
-0.0918929
0.0535566
-0.0838019
0.0780661
-0.0747347
0.0996852
-0.0648964
0.118596
-0.0559474
0.135156
-0.0481657
0.149637
-0.0412813
0.162357
-0.0358967
0.17366
-0.0314724
0.183813
-0.0280848
0.193083
-0.0255053
0.20168
-0.0236968
0.209765
-0.0222785
0.217523
-0.0213718
0.224965
-0.0205284
0.231993
-0.0194362
0.238299
-0.016925
0.243591
-0.0136533
0.247974
-0.0109782
0.251507
-0.0083542
0.25422
-0.00593417
0.256181
-0.00364152
0.257384
-0.00143438
0.257902
0.000692322
0.257725
0.00274497
0.256878
0.00477269
0.255289
0.00684591
0.25286
0.00920226
0.249213
0.0125957
0.243958
0.0174816
0.233391
0.0359537
0.213936
0.0606974
-0.194999
0.217687
-0.08553
0.240463
-0.0887117
0.265517
-0.0908113
0.288394
-0.0831632
0.31059
-0.0800871
0.331883
-0.0737096
0.351441
-0.0652926
0.369095
-0.0581303
0.385045
-0.0494252
0.399065
-0.0418444
0.411272
-0.0346706
0.421662
-0.0276066
0.430255
-0.0210573
0.437082
-0.015127
0.442463
-0.00907455
0.446066
-0.00335594
0.448009
0.0027838
0.44805
0.00859592
0.446492
0.0150401
0.443209
0.0211329
0.43834
0.0278834
0.432136
0.0336789
0.424734
0.0390906
0.416646
0.0419821
0.408313
0.0415095
0.399796
0.0411528
0.390731
0.0422854
0.380969
0.0435245
0.370324
0.0452878
0.358609
0.0473761
0.345805
0.0495747
0.331884
0.0519381
0.316833
0.0546932
0.300519
0.0582166
0.28268
0.0633296
0.262376
0.0724167
0.238361
0.0875148
0.204042
0.130601
0.155171
0.154284
-0.172582
-0.0892158
-0.148561
-0.0953026
-0.119425
-0.114455
-0.0895363
-0.120691
-0.0584
-0.12672
-0.0260676
-0.131476
0.00561
-0.129716
0.0348772
-0.12116
0.0615773
-0.110502
0.085767
-0.0989242
0.107126
-0.0862556
0.125918
-0.0747387
0.142552
-0.0647997
0.157265
-0.0559945
0.17038
-0.0490115
0.182122
-0.0432143
0.19279
-0.0387526
0.202561
-0.0352766
0.211669
-0.0328046
0.220251
-0.0308609
0.22842
-0.0295406
0.23624
-0.0283478
0.243646
-0.0268429
0.250314
-0.0235935
0.256
-0.0193394
0.260765
-0.0157439
0.264655
-0.0122446
0.267719
-0.00899856
0.269991
-0.00591283
0.271527
-0.0029711
0.272358
-0.00013843
0.272508
0.00259438
0.271977
0.00530273
0.270753
0.00806961
0.268718
0.0112356
0.265501
0.0158119
0.260536
0.022445
0.250523
0.0459621
0.231299
0.079922
-0.191289
0.214815
-0.109055
0.238494
-0.11239
0.26497
-0.117288
0.288629
-0.106822
0.311849
-0.103307
0.334243
-0.0961029
0.354699
-0.0857491
0.373335
-0.0767657
0.390434
-0.0665243
0.405353
-0.0567632
0.418476
-0.0477936
0.42974
-0.038871
0.439412
-0.0307297
0.447164
-0.0228786
0.453173
-0.0150831
0.457434
-0.00761687
0.460083
0.000134146
0.461165
0.00751479
0.460436
0.0157692
0.458154
0.0234148
0.454174
0.0318634
0.448631
0.0392216
0.441758
0.0459641
0.433949
0.0497908
0.425778
0.0496798
0.417456
0.0494754
0.408842
0.050899
0.39988
0.0524861
0.390436
0.0547319
0.380347
0.0574659
0.369365
0.0605566
0.357258
0.0640456
0.343799
0.0681528
0.328683
0.0733322
0.311482
0.0805318
0.291309
0.0925899
0.266723
0.112103
0.231714
0.165612
0.182636
0.203393
-0.167831
-0.112675
-0.143101
-0.120032
-0.112728
-0.144828
-0.0819988
-0.15142
-0.0501358
-0.158583
-0.0171527
-0.164459
0.014974
-0.161842
0.0443404
-0.150526
0.0709327
-0.137094
0.0949438
-0.122935
0.116084
-0.107395
0.134714
-0.0933692
0.151328
-0.0814128
0.166131
-0.070798
0.179444
-0.0623239
0.191531
-0.0553016
0.202572
-0.0497934
0.212752
-0.0454569
0.222269
-0.0423213
0.231262
-0.0398533
0.239823
-0.0381015
0.247992
-0.0365171
0.255732
-0.0345832
0.262764
-0.0306253
0.268824
-0.0253996
0.273946
-0.0208663
0.278163
-0.0164622
0.281529
-0.0123642
0.284071
-0.00845502
0.285823
-0.00472325
0.286826
-0.00114187
0.287136
0.00228392
0.286748
0.00569081
0.285625
0.00919178
0.283722
0.0131388
0.280654
0.0188797
0.275836
0.0272622
0.266401
0.0553952
0.247774
0.0985496
-0.188368
0.212911
-0.133598
0.237897
-0.137376
0.265743
-0.145134
0.290591
-0.13167
0.314813
-0.127529
0.338547
-0.119837
0.359945
-0.107147
0.37982
-0.0966412
0.397868
-0.0845725
0.413968
-0.0728631
0.42835
-0.062175
0.440826
-0.0513473
0.451611
-0.0415151
0.460681
-0.0319476
0.467895
-0.0222972
0.473557
-0.013279
0.477305
-0.0036134
0.479224
0.00559608
0.479419
0.0155736
0.477713
0.025121
0.474151
0.0354265
0.468947
0.0444251
0.462251
0.0526604
0.454477
0.0575649
0.446135
0.058022
0.437485
0.0581259
0.428483
0.0599016
0.419145
0.0618243
0.409478
0.0643989
0.399416
0.0675282
0.388892
0.0710817
0.377678
0.0752601
0.365506
0.0803264
0.351941
0.0868974
0.336362
0.0961138
0.317574
0.111379
0.293933
0.135748
0.259476
0.200075
0.210844
0.252057
-0.163937
-0.137106
-0.138379
-0.14559
-0.106682
-0.176525
-0.074799
-0.183303
-0.0419199
-0.191462
-0.0079884
-0.19839
0.0248946
-0.194725
0.0546554
-0.180287
0.0813815
-0.16382
0.10537
-0.146924
0.126388
-0.128413
0.144851
-0.111832
0.161357
-0.0979188
0.176163
-0.0856041
0.189574
-0.0757347
0.20185
-0.0675771
0.213153
-0.0610968
0.223682
-0.0559853
0.233562
-0.0522016
0.242925
-0.0492161
0.251862
-0.0470389
0.260395
-0.0450494
0.268467
-0.0426553
0.275891
-0.0380499
0.282336
-0.0318452
0.287795
-0.0263258
0.292354
-0.0210217
0.296008
-0.0160185
0.298806
-0.0112528
0.300777
-0.00669509
0.301962
-0.00232686
0.302388
0.00185771
0.302062
0.00601585
0.301005
0.0102485
0.29907
0.0150723
0.295976
0.0219723
0.29105
0.0321872
0.281916
0.0645251
0.263943
0.116523
-0.18665
0.212518
-0.159466
0.23855
-0.163408
0.267962
-0.174546
0.29408
-0.157787
0.31955
-0.152999
0.344355
-0.144641
0.366909
-0.129701
0.387624
-0.117357
0.406703
-0.103651
0.423725
-0.0898851
0.438923
-0.0773727
0.452432
-0.0648559
0.464119
-0.0532021
0.474045
-0.0418741
0.482269
-0.0305211
0.488614
-0.0196238
0.493231
-0.0082301
0.496011
0.00281543
0.49698
0.0146055
0.496069
0.0260319
0.493316
0.0381793
0.488783
0.0489583
0.48279
0.0586538
0.475518
0.0648359
0.467473
0.0660673
0.458886
0.0667129
0.449761
0.0690264
0.440129
0.0714556
0.430074
0.0744547
0.419561
0.078041
0.408599
0.0820439
0.397145
0.086714
0.385071
0.0924012
0.372042
0.0999262
0.357546
0.110611
0.340378
0.128546
0.318677
0.157451
0.286355
0.232399
0.23922
0.299214
-0.161012
-0.162744
-0.134348
-0.172254
-0.101195
-0.209678
-0.0679938
-0.216504
-0.0338995
-0.225556
0.00128762
-0.233577
0.0351711
-0.228609
0.0656196
-0.210735
0.0927244
-0.190925
0.116902
-0.171101
0.137894
-0.149405
0.15625
-0.130189
0.172649
-0.114317
0.187387
-0.100342
0.2008
-0.0891476
0.213172
-0.0799485
0.224676
-0.0726013
0.235456
-0.0667646
0.245646
-0.0623913
0.25534
-0.05891
0.26461
-0.0563097
0.273472
-0.0539107
0.2819
-0.0510832
0.289646
-0.0457963
0.296482
-0.0386815
0.30233
-0.0321744
0.307212
-0.0259038
0.311178
-0.0199848
0.314231
-0.0143052
0.316432
-0.00889674
0.317783
-0.00367817
0.318344
0.00129659
0.318123
0.0062368
0.317071
0.0113007
0.315138
0.0170041
0.311956
0.025155
0.306849
0.0372935
0.297799
0.0735742
0.280413
0.133909
-0.185624
0.212828
-0.186669
0.240286
-0.190867
0.271377
-0.205636
0.298693
-0.185102
0.325444
-0.179751
0.35149
-0.170686
0.375051
-0.153262
0.396959
-0.139264
0.416838
-0.123531
0.434773
-0.10782
0.450994
-0.0935938
0.465341
-0.0792024
0.477885
-0.0657459
0.488741
-0.0527304
0.497842
-0.0396218
0.505142
-0.0269236
0.510665
-0.0137531
0.514339
-0.000857854
0.516074
0.01287
0.515872
0.026234
0.513813
0.0402394
0.509894
0.0528766
0.504354
0.0641942
0.497542
0.0716488
0.489779
0.0738304
0.48132
0.0751718
0.47222
0.0781269
0.46248
0.081196
0.452142
0.0847928
0.441266
0.0889175
0.429801
0.0935099
0.41779
0.0987254
0.40514
0.105052
0.391749
0.113319
0.37722
0.125142
0.3607
0.145068
0.34064
0.177516
0.311321
0.261723
0.266898
0.343662
-0.158752
-0.189616
-0.130924
-0.200082
-0.0960524
-0.244549
-0.0613237
-0.251232
-0.0257833
-0.261096
0.0107834
-0.270144
0.045898
-0.263723
0.0772441
-0.242081
0.104915
-0.218596
0.129419
-0.195604
0.150523
-0.170509
0.168837
-0.148503
0.185145
-0.130625
0.199792
-0.114989
0.213154
-0.10251
0.225579
-0.0923734
0.237182
-0.084204
0.248146
-0.0777284
0.258569
-0.0728143
0.268546
-0.0688869
0.278108
-0.0658714
0.287299
-0.0631022
0.296055
-0.0598393
0.304169
-0.0539102
0.311373
-0.0458859
0.317586
-0.0383879
0.322821
-0.0311386
0.327106
-0.02427
0.330435
-0.0176344
0.332852
-0.0113145
0.334405
-0.00523129
0.335098
0.000603167
0.334963
0.00637035
0.33396
0.0123029
0.331981
0.0189823
0.328709
0.0284258
0.323436
0.0425655
0.314383
0.0826232
0.29758
0.150712
-0.185396
0.213969
-0.215242
0.242874
-0.219772
0.275663
-0.238425
0.304366
-0.213805
0.332579
-0.207964
0.359975
-0.198082
0.384747
-0.178034
0.407534
-0.162051
0.428511
-0.144509
0.447268
-0.126577
0.464185
-0.110511
0.479332
-0.0943496
0.492722
-0.0791358
0.504366
-0.0643739
0.514263
-0.0495186
0.522433
-0.0350938
0.528743
-0.0200631
0.533147
-0.00526181
0.535626
0.0103911
0.536132
0.0257278
0.534741
0.0416304
0.53149
0.0561278
0.526544
0.0691407
0.520212
0.0779802
0.512824
0.0812183
0.504582
0.0834134
0.495538
0.0871713
0.485761
0.0909725
0.475311
0.0952432
0.464175
0.100053
0.452362
0.105323
0.43987
0.111218
0.426639
0.118283
0.412549
0.127408
0.397373
0.140319
0.380469
0.161971
0.360903
0.197082
0.334252
0.288375
0.292989
0.384939
-0.157037
-0.217975
-0.127854
-0.229266
-0.0912012
-0.281202
-0.0549014
-0.287532
-0.0177053
-0.298292
0.0204556
-0.308305
0.0570528
-0.30032
0.0894652
-0.274493
0.117879
-0.247009
0.142876
-0.220601
0.164209
-0.191842
0.18258
-0.166873
0.198845
-0.146889
0.213408
-0.129553
0.226702
-0.115804
0.239085
-0.104757
0.250749
-0.0958674
0.261823
-0.0888024
0.272418
-0.0834092
0.282625
-0.0790939
0.29248
-0.075726
0.301946
-0.0725687
0.311011
-0.0689042
0.319477
-0.0623762
0.32707
-0.0534796
0.333635
-0.0449529
0.339225
-0.0367286
0.34381
-0.0288552
0.347438
-0.0212626
0.350107
-0.0139835
0.351847
-0.00697156
0.352697
-0.000246872
0.352647
0.00641977
0.351688
0.0132623
0.349709
0.0209617
0.346364
0.0317707
0.340904
0.0480251
0.331867
0.0916604
0.315643
0.166936
-0.185586
0.21577
-0.245426
0.246223
-0.250225
0.280902
-0.273104
0.311061
-0.243963
0.340563
-0.237465
0.369426
-0.226945
0.395363
-0.203972
0.41928
-0.185968
0.441234
-0.166463
0.460857
-0.1462
0.478616
-0.12827
0.494623
-0.110356
0.508704
-0.0932172
0.52105
-0.0767198
0.531791
-0.0602594
0.540651
-0.0439537
0.547721
-0.0271334
0.552864
-0.010404
0.556125
0.00712961
0.557406
0.0244472
0.556621
0.0424157
0.554014
0.0587358
0.549642
0.0735122
0.543812
0.0838106
0.536777
0.0882539
0.528706
0.091484
0.519771
0.0961068
0.510015
0.100729
0.49943
0.105828
0.488121
0.111362
0.476038
0.117407
0.463151
0.124106
0.449419
0.132016
0.434714
0.142114
0.418808
0.156228
0.401078
0.179703
0.380975
0.217189
0.355806
0.313551
0.317334
0.42343
-0.155851
-0.24771
-0.1252
-0.259916
-0.0865848
-0.319817
-0.0484232
-0.325694
-0.00953429
-0.337181
0.0304726
-0.348312
0.0686188
-0.338466
0.102283
-0.308158
0.13161
-0.276336
0.157264
-0.246255
0.178945
-0.213522
0.197442
-0.18537
0.213727
-0.163175
0.228228
-0.144053
0.241441
-0.129017
0.253776
-0.117092
0.265427
-0.107518
0.276551
-0.099927
0.28729
-0.0941473
0.297676
-0.0894805
0.307723
-0.085773
0.317474
-0.0823193
0.326847
-0.0782777
0.335645
-0.071174
0.343587
-0.061422
0.350536
-0.0519018
0.356457
-0.0426498
0.361384
-0.0337831
0.365294
-0.025173
0.368214
-0.0169034
0.370178
-0.00893667
0.37117
-0.00123855
0.371239
0.00634977
0.370335
0.014165
0.368336
0.0229599
0.364903
0.0352023
0.359324
0.0536029
0.350322
0.10066
0.334654
0.182603
-0.186369
0.218126
-0.277183
0.250159
-0.282258
0.286766
-0.309711
0.318601
-0.275798
0.349715
-0.268579
0.380046
-0.257277
0.407128
-0.231053
0.432266
-0.211106
0.455247
-0.189444
0.475802
-0.166755
0.494342
-0.146809
0.510973
-0.126988
0.525839
-0.108083
0.539012
-0.0898926
0.550329
-0.0715766
0.559948
-0.0535729
0.567723
-0.0349085
0.573638
-0.0163184
0.577547
0.00322076
0.579486
0.022508
0.579408
0.0424941
0.57737
0.060774
0.57357
0.0773118
0.568244
0.0891363
0.561606
0.0948921
0.553839
0.0992507
0.545026
0.10492
0.535244
0.110511
0.524614
0.116457
0.513095
0.122881
0.500746
0.129756
0.487536
0.137315
0.47338
0.146173
0.458137
0.157356
0.441546
0.172819
0.423029
0.198219
0.401932
0.238286
0.377143
0.338341
0.340589
0.459995
-0.154961
-0.279118
-0.122799
-0.292078
-0.0821056
-0.360511
-0.042008
-0.365792
-0.00115029
-0.378039
0.0407374
-0.390199
0.0806574
-0.378386
0.115725
-0.343225
0.14613
-0.30674
0.17252
-0.272645
0.194684
-0.235686
0.213413
-0.2041
0.22979
-0.179551
0.244261
-0.158524
0.257403
-0.142159
0.269663
-0.129351
0.281274
-0.119129
0.292423
-0.111076
0.303209
-0.104933
0.313723
-0.0999946
0.323986
-0.0960368
0.333968
-0.092301
0.343602
-0.0879119
0.352732
-0.0803041
0.361027
-0.0697167
0.368328
-0.0592031
0.374616
-0.0489381
0.379865
-0.0390323
0.38409
-0.0293975
0.387269
-0.020083
0.389432
-0.0110992
0.390616
-0.00242277
0.390791
0.00617472
0.389951
0.0150051
0.387941
0.0249695
0.384458
0.0386855
0.378741
0.0593197
0.369789
0.109613
0.354737
0.197655
-0.187455
0.22101
-0.310737
0.254801
-0.316049
0.293447
-0.348356
0.326884
-0.309236
0.359608
-0.301302
0.391521
-0.289189
0.420102
-0.259634
0.446371
-0.237375
0.47042
-0.213493
0.491872
-0.188207
0.511299
-0.166237
0.528782
-0.144471
0.544254
-0.123554
0.558037
-0.103675
0.570111
-0.0836505
0.580401
-0.0638632
0.588821
-0.0433277
0.595353
-0.0228505
0.599929
-0.00135496
0.602544
0.0198931
0.603129
0.0419095
0.601743
0.0621602
0.598518
0.0805372
0.593684
0.0939705
0.587431
0.101145
0.579938
0.106744
0.571278
0.11358
0.561571
0.120219
0.550853
0.127176
0.539192
0.134542
0.526588
0.142361
0.513029
0.150875
0.498479
0.160723
0.482733
0.173103
0.465538
0.190016
0.446327
0.217432
0.424238
0.260378
0.3991
0.363484
0.36375
0.49536
-0.154407
-0.312166
-0.120517
-0.325968
-0.0776843
-0.403344
-0.035488
-0.407988
0.00741672
-0.420944
0.0513581
-0.434141
0.0932321
-0.42026
0.12981
-0.379803
0.161401
-0.338331
0.188706
-0.29995
0.21146
-0.25844
0.23052
-0.22316
0.247021
-0.196052
0.261519
-0.173023
0.27461
-0.15525
0.286801
-0.141542
0.298339
-0.130667
0.309458
-0.122196
0.32029
-0.115764
0.330883
-0.110587
0.341279
-0.106433
0.351452
-0.102473
0.361367
-0.0978277
0.370801
-0.0897381
0.379437
-0.0783528
0.387092
-0.0668585
0.393719
-0.0555654
0.399315
-0.0446286
0.403822
-0.0339047
0.407284
-0.0235448
0.40968
-0.0134963
0.411031
-0.00377365
0.411348
0.00585615
0.410558
0.0157947
0.408563
0.0269635
0.405017
0.0422299
0.399192
0.0651442
0.390353
0.118449
0.375936
0.212071
-0.189021
0.224289
-0.346006
0.259941
-0.3517
0.300743
-0.389159
0.336032
-0.344525
0.370507
-0.335776
0.404058
-0.322741
0.434055
-0.289631
0.461655
-0.264975
0.486762
-0.2386
0.509193
-0.210638
0.529449
-0.186493
0.547662
-0.162684
0.563941
-0.139833
0.578417
-0.118151
0.591094
-0.0963283
0.601967
-0.0747359
0.611043
-0.0524028
0.618247
-0.0300547
0.62347
-0.0065775
0.626642
0.0167204
0.627844
0.0407082
0.627029
0.0629747
0.624359
0.0832074
0.620065
0.0982645
0.614299
0.106912
0.607101
0.113941
0.598646
0.122035
0.588996
0.129869
0.578236
0.137934
0.566443
0.146335
0.553618
0.155186
0.539736
0.164757
0.524749
0.17571
0.508499
0.189352
0.490722
0.207794
0.470868
0.237284
0.447979
0.283268
0.422237
0.389225
0.387635
0.529968
-0.154057
-0.34713
-0.118501
-0.361524
-0.0733007
-0.448544
-0.0289096
-0.452379
0.0162443
-0.466097
0.062457
-0.480353
0.106306
-0.46411
0.144595
-0.418092
0.177496
-0.371232
0.205818
-0.328272
0.229257
-0.281879
0.248732
-0.242634
0.265473
-0.212793
0.280049
-0.187598
0.293115
-0.168316
0.305239
-0.153666
0.316704
-0.142132
0.327768
-0.13326
0.338578
-0.126574
0.349224
-0.121233
0.359719
-0.116928
0.37007
-0.112824
0.380202
-0.10796
0.389934
-0.0994703
0.398889
-0.0873077
0.406885
-0.0748547
0.413857
-0.0625368
0.419761
-0.0505334
0.424592
-0.0387356
0.42833
-0.0272826
0.430971
-0.0161371
0.432525
-0.0053281
0.432971
0.00541006
0.432269
0.0164967
0.430277
0.0289561
0.426709
0.045798
0.420801
0.0710522
0.412038
0.127212
0.398308
0.225802
-0.19082
0.228034
-0.38322
0.265649
-0.389315
0.30875
-0.432259
0.345928
-0.381702
0.382184
-0.372032
0.417492
-0.358049
0.449034
-0.321173
0.477945
-0.293886
0.50428
-0.264935
0.527704
-0.234062
0.548919
-0.207708
0.56791
-0.181676
0.584892
-0.156814
0.600032
-0.133291
0.613243
-0.10954
0.624784
-0.0862765
0.634467
-0.0620857
0.64225
-0.0378373
0.648108
-0.0124356
0.651931
0.012898
0.653701
0.0389385
0.653486
0.0631899
0.651381
0.0853124
0.647585
0.102061
0.642233
0.112264
0.63536
0.120814
0.62714
0.130255
0.617613
0.139396
0.606847
0.148701
0.594933
0.158249
0.581878
0.168241
0.567691
0.178945
0.552276
0.191126
0.535545
0.206084
0.517183
0.226157
0.496698
0.257771
0.473061
0.306907
0.446763
0.415529
0.412724
0.564017
-0.154071
-0.383879
-0.116475
-0.39912
-0.0688898
-0.496129
-0.0221214
-0.499147
0.0253531
-0.513572
0.0739054
-0.528906
0.120023
-0.510227
0.160106
-0.458175
0.194486
-0.405611
0.223926
-0.357712
0.248159
-0.306112
0.26812
-0.262595
0.285155
-0.229828
0.299851
-0.202295
0.312922
-0.181386
0.325007
-0.16575
0.336404
-0.153529
0.347381
-0.144236
0.358152
-0.137345
0.368813
-0.131895
0.379379
-0.127494
0.389852
-0.123297
0.400197
-0.118305
0.410189
-0.109462
0.419444
-0.0965636
0.427764
-0.0831751
0.43507
-0.0698423
0.441316
-0.0567804
0.44646
-0.0438791
0.45048
-0.0313037
0.453362
-0.0190196
0.455106
-0.00707266
0.455708
0.00480781
0.455094
0.0171094
0.45313
0.0309193
0.449533
0.0493936
0.443577
0.0770073
0.434976
0.135811
0.421915
0.238861
-0.192921
0.23224
-0.422538
0.27188
-0.428954
0.317392
-0.477772
0.356526
-0.420836
0.394713
-0.410219
0.431972
-0.395308
0.465041
-0.354242
0.495394
-0.324239
0.523082
-0.292623
0.547604
-0.258583
0.569703
-0.229806
0.589537
-0.20151
0.607145
-0.174422
0.622953
-0.1491
0.636906
-0.123493
0.649003
-0.0983734
0.659276
-0.0723582
0.667617
-0.0461781
0.673951
-0.0187697
0.678331
0.00851847
0.680701
0.036568
0.680997
0.062894
0.679438
0.0868722
0.676157
0.105342
0.671267
0.117154
0.664795
0.127286
0.656785
0.138266
0.647396
0.148785
0.63669
0.159407
0.624688
0.170251
0.611448
0.181481
0.596947
0.193447
0.581169
0.206904
0.563934
0.223317
0.544966
0.245126
0.523843
0.278892
0.49957
0.331181
0.472724
0.442375
0.439248
0.597497
-0.154169
-0.422631
-0.114689
-0.4386
-0.0644432
-0.546375
-0.0151872
-0.548403
0.0347822
-0.563541
0.085907
-0.58003
0.134323
-0.558643
0.176393
-0.500245
0.212306
-0.441524
0.243018
-0.388423
0.268118
-0.331212
0.288692
-0.283169
0.306093
-0.247229
0.320976
-0.217178
0.33411
-0.19452
0.346154
-0.177795
0.357473
-0.164848
0.368389
-0.155152
0.379097
-0.148053
0.389727
-0.142524
0.400326
-0.138093
0.410915
-0.133886
0.421433
-0.128823
0.431657
-0.119686
0.441212
-0.106119
0.449838
-0.0918008
0.457464
-0.0774689
0.464021
-0.0633373
0.469476
-0.049334
0.473771
-0.0355986
0.476914
-0.0221625
0.478885
-0.00904338
0.479628
0.00406484
0.47913
0.0176073
0.477212
0.0328374
0.473604
0.0530019
0.467628
0.0829841
0.459158
0.144282
0.446822
0.251197
-0.195379
0.236857
-0.464017
0.278626
-0.470723
0.326653
-0.525798
0.367854
-0.462037
0.408157
-0.450523
0.44737
-0.434521
0.482142
-0.389014
0.514051
-0.356147
0.543032
-0.321605
0.568648
-0.284199
0.591737
-0.252896
0.612443
-0.222216
0.630916
-0.192894
0.647348
-0.165532
0.661881
-0.138025
0.674551
-0.111044
0.685363
-0.0831701
0.694249
-0.0550635
0.701216
-0.0257369
0.706103
0.00363224
0.708957
0.0337138
0.709827
0.0620246
0.708755
0.087944
0.705962
0.108135
0.701504
0.121613
0.695399
0.133391
0.687693
0.145973
0.678473
0.158005
0.667808
0.170071
0.655751
0.182309
0.642356
0.194875
0.6276
0.208204
0.611418
0.223086
0.593701
0.241036
0.574171
0.264657
0.552436
0.300628
0.52751
0.356108
0.500186
0.469703
0.467278
0.630412
-0.154462
-0.463548
-0.112835
-0.480226
-0.0598837
-0.599326
-0.00799563
-0.600291
0.0446233
-0.61616
0.0984405
-0.633848
0.149361
-0.609563
0.193512
-0.544396
0.231132
-0.479144
0.263175
-0.420466
0.289277
-0.357314
0.310505
-0.304397
0.328332
-0.265056
0.343463
-0.232308
0.356691
-0.207748
0.368745
-0.189849
0.380003
-0.176106
0.390834
-0.165983
0.401468
-0.158687
0.412061
-0.153117
0.422661
-0.148693
0.433308
-0.144534
0.443976
-0.13949
0.45444
-0.13015
0.464246
-0.115925
0.473155
-0.10071
0.481086
-0.0854007
0.487956
-0.0702072
0.493718
-0.0550966
0.498313
-0.0401944
0.501713
-0.0255623
0.503881
-0.0112118
0.504816
0.0031284
0.504422
0.0180006
0.502566
0.0346926
0.498971
0.0565957
0.492992
0.0889622
0.484716
0.152556
0.473136
0.262776
-0.198043
0.241743
-0.507717
0.285841
-0.514821
0.336548
-0.576505
0.379983
-0.505472
0.422446
-0.492985
0.463692
-0.475768
0.500318
-0.42564
0.533835
-0.389664
0.564196
-0.351966
0.591041
-0.311044
0.615259
-0.277114
0.636817
-0.243774
0.65605
-0.212127
0.673205
-0.182688
0.688329
-0.153149
0.70159
-0.124304
0.712931
-0.0945112
0.722368
-0.0645011
0.729791
-0.0331593
0.735222
-0.00179914
0.73857
0.0303665
0.739897
0.0606979
0.739346
0.0884949
0.73702
0.110461
0.733034
0.1256
0.727293
0.139131
0.719873
0.153393
0.710848
0.16703
0.700258
0.180662
0.688194
0.194373
0.67466
0.208409
0.659662
0.223201
0.643135
0.239613
0.624956
0.259214
0.604888
0.284725
0.5825
0.323015
0.556991
0.381617
0.529232
0.497462
0.49686
0.662786
-0.154902
-0.506688
-0.111063
-0.524065
-0.0552411
-0.655149
-0.000517165
-0.655015
0.054881
-0.671558
0.111512
-0.690478
0.165142
-0.663193
0.211486
-0.59074
0.250945
-0.518603
0.284437
-0.453958
0.311595
-0.384473
0.333569
-0.32637
0.351918
-0.283405
0.367344
-0.247734
0.380714
-0.221117
0.392816
-0.201951
0.404042
-0.187332
0.414802
-0.176742
0.425354
-0.16924
0.435876
-0.163638
0.446467
-0.159284
0.457154
-0.155221
0.467941
-0.150277
0.478582
-0.140791
0.488622
-0.125965
0.497813
-0.109901
0.506031
-0.0936181
0.513213
-0.0773894
0.519263
-0.0611468
0.524146
-0.0450776
0.527805
-0.029221
0.530218
-0.0136246
0.531319
0.00202705
0.531044
0.0182753
0.529272
0.0364651
0.525701
0.0601672
0.519782
0.0948816
0.51169
0.160649
0.500844
0.273622
-0.201024
0.247126
-0.553819
0.293663
-0.561358
0.34706
-0.629901
0.392956
-0.551368
0.437589
-0.537618
0.481103
-0.519282
0.519576
-0.464113
0.554806
-0.424894
0.586706
-0.383865
0.614855
-0.339193
0.640056
-0.302315
0.662645
-0.266362
0.682638
-0.23212
0.700504
-0.200554
0.716352
-0.168996
0.730145
-0.138096
0.742053
-0.106419
0.751982
-0.0744303
0.759943
-0.0411203
0.765817
-0.00767294
0.769624
0.0265595
0.771461
0.058861
0.771317
0.0886392
0.769446
0.112333
0.765864
0.129181
0.760501
0.144495
0.7534
0.160494
0.744595
0.175835
0.734159
0.191099
0.722088
0.206444
0.708448
0.222049
0.693224
0.238426
0.676366
0.256472
0.657767
0.277813
0.63713
0.305362
0.614178
0.345968
0.588085
0.407712
0.559877
0.525673
0.528065
0.694602
-0.155541
-0.552171
-0.109319
-0.570287
-0.0504119
-0.714056
0.00722198
-0.712649
0.0656133
-0.72995
0.12526
-0.750125
0.181638
-0.719571
0.230413
-0.639515
0.271786
-0.559977
0.306875
-0.489047
0.335201
-0.412798
0.358007
-0.349176
0.376923
-0.302321
0.392704
-0.263514
0.406272
-0.234686
0.418429
-0.214109
0.429663
-0.198565
0.440347
-0.187426
0.450817
-0.17971
0.461265
-0.174086
0.471815
-0.169835
0.482521
-0.165927
0.493408
-0.161164
0.504218
-0.151601
0.514477
-0.136224
0.523903
-0.119327
0.532385
-0.1021
0.539838
-0.0848431
0.546192
-0.0675007
0.551346
-0.0502327
0.55528
-0.0331548
0.557906
-0.0162515
0.559211
0.000721261
0.559097
0.0183889
0.557387
0.0381742
0.553905
0.0636481
0.548039
0.100747
0.540208
0.168478
0.530112
0.283718
-0.204233
0.252864
-0.60245
0.301874
-0.610368
0.358333
-0.68636
0.406544
-0.599578
0.453694
-0.584768
0.499474
-0.565062
0.540051
-0.504691
0.577012
-0.461854
0.610491
-0.417345
0.63997
-0.368673
0.666444
-0.328789
0.68996
-0.289878
0.710888
-0.253048
0.729503
-0.219169
0.745974
-0.185467
0.760378
-0.1525
0.772794
-0.118835
0.783197
-0.0848327
0.79158
-0.0495033
0.797925
-0.0140183
0.802215
0.0222702
0.804414
0.056662
0.804708
0.0883456
0.803279
0.113761
0.800107
0.132354
0.795156
0.149445
0.788368
0.167282
0.779784
0.184419
0.769462
0.201421
0.757451
0.218454
0.74374
0.235761
0.728325
0.253841
0.711168
0.273628
0.692154
0.296827
0.671037
0.326479
0.64751
0.369493
0.620876
0.434346
0.592267
0.554281
0.560976
0.725895
-0.156281
-0.600123
-0.107555
-0.619012
-0.0454294
-0.776182
0.0152759
-0.773355
0.0768096
-0.791484
0.139649
-0.812964
0.199036
-0.778958
0.250292
-0.690771
0.293744
-0.603428
0.330493
-0.525797
0.360091
-0.442396
0.383815
-0.3729
0.403367
-0.321873
0.419576
-0.279723
0.433385
-0.248495
0.445662
-0.226385
0.456899
-0.209802
0.467544
-0.198071
0.477934
-0.1901
0.488326
-0.184478
0.498807
-0.180316
0.509525
-0.176644
0.520473
-0.172113
0.531428
-0.162556
0.54188
-0.146676
0.551512
-0.128959
0.560259
-0.110847
0.567978
-0.0925625
0.574585
-0.0741081
0.580042
-0.0556898
0.584225
-0.0373373
0.587096
-0.0191229
0.588576
-0.000758385
0.588613
0.0183519
0.58704
0.0397474
0.583622
0.0670664
0.577889
0.10648
0.570294
0.176073
0.560964
0.293048
-0.207727
0.258977
-0.653699
0.31066
-0.662051
0.370172
-0.745872
0.421101
-0.650508
0.470695
-0.634362
0.519001
-0.613367
0.561595
-0.547285
0.600505
-0.500764
0.635679
-0.452519
0.666638
-0.399633
0.694286
-0.356437
0.718948
-0.314541
0.740753
-0.274853
0.760157
-0.238573
0.777266
-0.202576
0.792302
-0.167535
0.80522
-0.131754
0.8161
-0.0957119
0.824978
-0.0583811
0.831722
-0.0207622
0.836387
0.0176052
0.839003
0.0540459
0.839688
0.0876615
0.838648
0.114801
0.835883
0.135119
0.831277
0.154051
0.824803
0.173756
0.816506
0.192716
0.806355
0.211572
0.794385
0.230425
0.780621
0.249526
0.765066
0.269396
0.747648
0.291046
0.728251
0.316224
0.706665
0.348066
0.682605
0.393553
0.655465