/*--------------------------------*- C++ -*----------------------------------*\
  =========                 |
  \\      /  F ield         | OpenFOAM: The Open Source CFD Toolbox
   \\    /   O peration     | Website:  https://openfoam.org
    \\  /    A nd           | Version:  7
     \\/     M anipulation  |
\*---------------------------------------------------------------------------*/
FoamFile
{
    version     2.0;
    format      ascii;
    class       volVectorField;
    location    "100";
    object      U;
}
// * * * * * * * * * * * * * * * * * * * * * * * * * * * * * * * * * * * * * //

dimensions      [0 1 -1 0 0 0 0];

internalField   nonuniform List<vector> 
10720
(
(0.581287 26.9555 1.12428e-17)
(2.30184 29.2299 -1.03817e-17)
(4.46105 31.4272 0)
(6.94716 33.1421 -3.6526e-16)
(9.70092 34.4606 4.09434e-16)
(12.6577 35.3362 3.03212e-16)
(15.6644 35.6658 4.23628e-16)
(18.6283 35.4871 0)
(21.4719 34.859 0)
(24.1165 33.8179 0)
(26.533 32.4453 1.13063e-16)
(28.7059 30.8183 0)
(30.6239 28.9914 2.28344e-15)
(32.2619 26.9794 0)
(33.604 24.807 0)
(34.66 22.5177 0)
(35.4168 20.1282 -3.87045e-15)
(35.8775 17.6884 -5.79814e-15)
(36.0234 15.2227 5.16673e-15)
(35.8658 12.7918 0)
(35.3882 10.4338 4.26175e-15)
(34.6279 8.22368 -8.36549e-15)
(33.6331 6.21542 4.17335e-15)
(32.5128 4.47431 -1.25287e-16)
(31.4636 3.04978 0)
(30.5698 1.8916 1.66181e-15)
(29.7379 0.913483 2.57374e-17)
(28.8704 0.0744438 -7.29529e-16)
(27.9301 -0.648348 -2.66527e-15)
(26.9126 -1.26982 -9.68183e-15)
(25.8206 -1.79688 4.31713e-15)
(24.6569 -2.23309 7.87308e-15)
(23.4188 -2.57958 6.79052e-15)
(22.0973 -2.83684 2.31932e-14)
(20.645 -3.00043 -9.36588e-15)
(19.0247 -3.06819 -6.62504e-17)
(16.9382 -2.98841 2.08675e-17)
(14.4987 -2.74726 3.33336e-15)
(9.08832 -2.22468 1.42531e-14)
(-0.773919 24.5296 -2.00934e-18)
(-1.85848 21.7989 -1.5498e-17)
(-2.60332 18.7275 6.15397e-17)
(-2.87838 15.1778 -1.71162e-16)
(-2.53042 11.5101 -5.75165e-16)
(-1.52867 7.87827 1.00632e-15)
(0.0203523 4.58571 5.22808e-15)
(1.87305 1.85453 2.61878e-15)
(3.88565 -0.519741 0)
(6.13049 -2.50624 0)
(8.38095 -3.93501 1.82835e-15)
(10.4527 -4.83777 6.77113e-16)
(12.2942 -5.34226 -1.14131e-15)
(13.9057 -5.56553 9.44193e-16)
(15.3086 -5.60531 1.56329e-15)
(16.5379 -5.52585 1.00968e-15)
(17.6255 -5.37437 1.28448e-15)
(18.6038 -5.17878 8.51025e-16)
(19.5034 -4.95828 0)
(20.3466 -4.71512 0)
(21.1513 -4.45023 -1.155e-15)
(21.9285 -4.15261 -5.19458e-17)
(22.6797 -3.80624 7.55959e-16)
(23.3739 -3.37948 -5.066e-16)
(23.9435 -2.86685 2.41716e-17)
(24.3701 -2.30627 0)
(24.6801 -1.72419 6.28103e-17)
(24.8896 -1.1364 0)
(25.0065 -0.554477 0)
(25.0225 0.0107968 -1.3229e-17)
(24.922 0.551506 0)
(24.7206 1.06056 1.2243e-16)
(24.4371 1.53175 1.65579e-16)
(24.0856 1.95969 4.34661e-16)
(23.6607 2.3408 1.53604e-16)
(23.153 2.67627 -1.25862e-18)
(22.438 2.95928 0)
(21.4593 3.15322 4.40055e-15)
(18.6689 3.31129 8.32977e-15)
(6.92827 23.4178 -8.70022e-18)
(8.75347 25.1585 1.02273e-18)
(10.987 26.7481 0)
(13.5643 28.0816 0)
(16.3469 29.0962 -1.20101e-16)
(19.3379 29.732 -2.90178e-16)
(22.4225 29.9429 0)
(25.4699 29.7475 0)
(28.4237 29.1553 6.33545e-16)
(31.1964 28.2145 0)
(33.732 26.9822 2.36217e-15)
(36.0046 25.509 0)
(37.9876 23.8436 8.54531e-16)
(39.6985 22.0705 -8.41613e-16)
(41.1499 20.2158 1.70315e-15)
(42.3159 18.3054 -3.41713e-15)
(43.1908 16.3529 3.66349e-15)
(43.7621 14.383 3.35572e-15)
(44.0283 12.4031 3.28902e-15)
(43.9693 10.4423 2.00066e-16)
(43.5833 8.52522 -3.43729e-15)
(42.859 6.70459 3.26492e-15)
(41.8194 5.02043 -1.84073e-16)
(40.4977 3.52905 0)
(39 2.28127 0)
(37.4719 1.22534 0)
(35.9715 0.28614 1.38945e-16)
(34.4918 -0.545372 -3.10507e-17)
(33.0356 -1.27095 1.95376e-15)
(31.5988 -1.89637 3.69118e-17)
(30.1665 -2.42386 -2.91906e-17)
(28.7214 -2.85556 -8.54047e-17)
(27.2448 -3.19344 4.66665e-15)
(25.7212 -3.43953 -7.81959e-15)
(24.1098 -3.59331 -4.22462e-17)
(22.3909 -3.65536 -8.97605e-15)
(20.3066 -3.5846 0)
(18.0752 -3.38228 -9.55961e-16)
(12.7326 -2.62904 7.56498e-15)
(5.39644 21.5688 1.1533e-17)
(4.07769 19.519 -4.88521e-17)
(2.9399 17.1245 -5.79933e-16)
(2.09871 14.4137 7.16868e-16)
(1.73095 11.4843 0)
(1.92166 8.47585 -1.47787e-15)
(2.67649 5.59217 -1.0656e-15)
(3.88542 3.01013 -7.47152e-15)
(5.41705 0.757105 2.11735e-15)
(7.19534 -1.06235 -1.61529e-15)
(9.07392 -2.36965 2.05775e-15)
(10.9069 -3.22988 -5.89162e-16)
(12.6205 -3.75176 0)
(14.1824 -4.02688 -3.91958e-16)
(15.5837 -4.13829 5.48063e-17)
(16.8379 -4.13856 -8.70555e-16)
(17.9631 -4.07076 0)
(18.9831 -3.9584 0)
(19.9221 -3.81827 -8.93851e-17)
(20.8028 -3.64667 8.60196e-17)
(21.6408 -3.44089 -1.00632e-15)
(22.4483 -3.1834 -1.07213e-16)
(23.2269 -2.85353 4.6719e-17)
(23.9526 -2.41364 5.00468e-16)
(24.5704 -1.87688 -3.31904e-16)
(25.0554 -1.31142 -2.34112e-16)
(25.424 -0.746277 0)
(25.6895 -0.192424 0)
(25.8543 0.343652 0)
(25.9299 0.853162 8.68683e-18)
(25.9394 1.32893 0)
(25.8779 1.7682 0)
(25.7357 2.16999 -2.4022e-16)
(25.5079 2.53353 -1.20081e-16)
(25.1872 2.86085 -1.23561e-16)
(24.7839 3.15773 5.10961e-16)
(24.1954 3.4227 -1.91791e-15)
(23.62 3.65215 -3.39497e-15)
(21.5183 3.70296 -5.65038e-15)
(8.38919 21.5822 -1.92802e-18)
(9.71747 23.1059 2.67111e-18)
(11.3368 24.5912 -3.39961e-18)
(13.204 25.9611 -3.22925e-17)
(15.2681 27.1011 -1.54248e-16)
(17.5298 27.987 5.45957e-16)
(19.9165 28.5766 -3.84923e-16)
(22.3541 28.8328 -4.62308e-16)
(24.7885 28.7527 6.21516e-18)
(27.1618 28.3465 -6.10791e-16)
(29.4221 27.6341 5.73691e-16)
(31.537 26.6452 -1.49564e-15)
(33.4779 25.4121 -7.19436e-16)
(35.2292 23.9605 0)
(36.7722 22.3235 -1.73057e-15)
(38.114 20.5287 3.49884e-15)
(39.2662 18.5915 0)
(40.2113 16.5551 -6.65492e-15)
(40.9405 14.449 -3.33336e-15)
(41.4279 12.3257 3.89622e-16)
(41.6621 10.2233 -3.86024e-16)
(41.6227 8.20955 -1.75387e-16)
(41.3114 6.33378 -2.49326e-15)
(40.7351 4.65808 1.25333e-15)
(39.9425 3.22713 0)
(39.0076 1.98613 1.09594e-15)
(37.9496 0.867645 -1.29461e-16)
(36.7613 -0.128268 0)
(35.4587 -0.998167 1.72157e-15)
(34.068 -1.74588 3.19488e-15)
(32.6092 -2.37383 -5.63086e-15)
(31.0957 -2.88558 -4.84349e-15)
(29.5301 -3.28579 -1.03654e-16)
(27.9083 -3.57876 -6.86231e-15)
(26.1958 -3.76632 -5.48456e-15)
(24.3741 -3.84773 7.81805e-15)
(22.2032 -3.78955 0)
(19.9054 -3.55027 -7.39418e-16)
(15.0123 -2.88548 -1.14485e-14)
(7.30701 19.9798 -1.60537e-17)
(6.36295 18.232 -5.77293e-17)
(5.58159 16.1789 2.32447e-16)
(4.96644 13.8811 0)
(4.66199 11.4197 4.23279e-16)
(4.71772 8.86575 0)
(5.15893 6.35466 3.01183e-15)
(5.95863 4.02728 1.6691e-15)
(7.07813 1.96076 1.43375e-15)
(8.44839 0.223322 0)
(9.94512 -1.14595 -2.10464e-15)
(11.4614 -2.16853 -4.49558e-16)
(12.9312 -2.89738 2.04018e-15)
(14.3159 -3.38819 0)
(15.5961 -3.69418 -9.44611e-16)
(16.7713 -3.85976 -2.85397e-16)
(17.8494 -3.9228 1.17201e-15)
(18.8442 -3.90925 6.05435e-16)
(19.7727 -3.83758 1.6512e-16)
(20.6521 -3.71292 -9.02422e-17)
(21.4949 -3.53752 9.18745e-16)
(22.3098 -3.30254 0)
(23.0968 -2.99413 0)
(23.8358 -2.58988 2.41356e-17)
(24.4823 -2.10331 0)
(25.0126 -1.58356 4.9142e-16)
(25.4373 -1.05005 -6.22331e-18)
(25.7682 -0.510439 -2.45268e-17)
(26.0087 0.0276239 0)
(26.1608 0.554235 2.77203e-18)
(26.2299 1.06225 -1.35476e-17)
(26.2213 1.54491 0)
(26.1372 1.99627 1.00162e-16)
(25.9779 2.41125 0)
(25.7315 2.78832 0)
(25.3983 3.12858 3.94404e-17)
(24.8665 3.4323 -5.60431e-17)
(24.2658 3.6592 3.39338e-15)
(22.3909 3.71754 1.09572e-14)
(10.8537 19.8037 -1.28213e-17)
(12.0755 21.1045 -1.13548e-17)
(13.546 22.3771 2.46705e-18)
(15.2414 23.5455 -4.17451e-18)
(17.1166 24.521 0)
(19.178 25.2858 0)
(21.3703 25.7954 -6.47735e-16)
(23.6333 26.0145 7.84184e-16)
(25.921 25.9359 0)
(28.1785 25.5607 -9.71577e-16)
(30.3544 24.9022 -1.24034e-15)
(32.4104 23.9828 -1.17741e-15)
(34.3125 22.8306 1.41002e-15)
(36.0333 21.4762 1.33402e-15)
(37.5511 19.9535 0)
(38.8536 18.2946 2.13241e-15)
(39.9126 16.5427 7.40966e-16)
(40.7147 14.7327 5.99165e-15)
(41.2553 12.891 3.63748e-16)
(41.5388 11.0459 -3.60524e-16)
(41.5721 9.22843 3.05397e-15)
(41.3703 7.48242 -5.00463e-16)
(40.9613 5.8482 2.72828e-15)
(40.3819 4.36981 1.14012e-15)
(39.6883 3.07859 -6.75563e-17)
(38.9378 1.93832 -9.90884e-16)
(38.1336 0.895704 7.32054e-18)
(37.2434 -0.053638 -7.34686e-18)
(36.2478 -0.906172 -1.65012e-15)
(35.1395 -1.66226 -4.3671e-17)
(33.9148 -2.31803 2.75385e-15)
(32.5751 -2.86902 -4.68293e-15)
(31.1234 -3.31218 -3.77621e-15)
(29.5635 -3.64561 -2.76714e-18)
(27.8727 -3.86695 4.98718e-15)
(26.0414 -3.97017 0)
(23.8523 -3.92534 4.00505e-15)
(21.4901 -3.6455 6.37495e-16)
(16.873 -3.02894 4.75593e-15)
(9.83195 18.4444 -2.7982e-17)
(8.92138 16.9737 7.79019e-17)
(8.13293 15.2429 3.31811e-16)
(7.48413 13.291 0)
(7.09785 11.1931 -3.74521e-16)
(7.01023 8.99647 0)
(7.24428 6.80108 -2.28809e-15)
(7.7788 4.72106 -9.56021e-17)
(8.5902 2.82976 1.06692e-15)
(9.63388 1.1866 9.42427e-16)
(10.8234 -0.166588 3.21247e-17)
(12.0799 -1.22594 1.59352e-15)
(13.3463 -2.0205 -1.02588e-15)
(14.5809 -2.5894 3.2653e-16)
(15.7566 -2.97283 1.10899e-15)
(16.8622 -3.2105 1.21658e-15)
(17.8959 -3.33632 -1.08594e-15)
(18.8626 -3.37676 6.74054e-18)
(19.7725 -3.35095 0)
(20.6374 -3.26759 1.11483e-15)
(21.4669 -3.1293 5.38101e-17)
(22.2674 -2.92988 -8.22805e-16)
(23.0382 -2.65775 0)
(23.7625 -2.29547 2.30024e-17)
(24.4034 -1.85024 0)
(24.9375 -1.36117 -2.33867e-16)
(25.371 -0.851186 0)
(25.7142 -0.332007 2.30224e-17)
(25.9712 0.186327 -5.64477e-19)
(26.1443 0.693391 2.6414e-19)
(26.2381 1.18011 1.23899e-17)
(26.258 1.63916 3.15321e-19)
(26.2072 2.06675 0)
(26.0878 2.46057 2.9158e-17)
(25.8903 2.82096 1.02848e-18)
(25.6147 3.14817 -5.29314e-16)
(25.1549 3.44417 3.94655e-15)
(24.607 3.64067 1.00142e-17)
(22.9214 3.69346 0)
(12.4471 18.4386 -1.77651e-17)
(13.4865 19.5896 -4.58467e-18)
(14.7427 20.736 4.45813e-18)
(16.1833 21.8124 1.0084e-16)
(17.7695 22.7379 -4.04159e-17)
(19.5225 23.5073 -1.66663e-16)
(21.3966 24.0795 2.76449e-16)
(23.3457 24.4187 0)
(25.3401 24.5136 1.11264e-15)
(27.3341 24.3559 5.25188e-16)
(29.2869 23.9457 0)
(31.1651 23.2923 1.12926e-15)
(32.935 22.4115 -5.98515e-16)
(34.568 21.3217 1.66559e-15)
(36.041 20.0457 0)
(37.3331 18.607 -2.78636e-15)
(38.4294 17.0251 2.66616e-15)
(39.3217 15.3172 -1.63746e-16)
(39.9946 13.5139 0)
(40.4326 11.6587 2.89578e-15)
(40.6253 9.79683 -2.92503e-15)
(40.5712 7.98607 -1.49465e-16)
(40.2867 6.27943 -2.27731e-15)
(39.8067 4.72873 -2.09194e-15)
(39.1908 3.36998 0)
(38.5052 2.1772 0)
(37.7753 1.10005 -2.26666e-16)
(36.9905 0.125646 -2.53942e-17)
(36.1423 -0.747562 1.56681e-15)
(35.2247 -1.52398 -4.15846e-17)
(34.225 -2.20397 4.15368e-17)
(33.1261 -2.78517 4.37911e-15)
(31.9089 -3.26421 0)
(30.5568 -3.63661 1.21545e-14)
(29.0353 -3.89615 -4.17955e-17)
(27.3299 -4.03033 0)
(25.2393 -4.00931 -2.97193e-17)
(22.9201 -3.71014 0)
(18.5304 -3.10894 -4.0453e-15)
(11.5715 17.2421 2.83918e-17)
(10.7877 15.9598 -1.76114e-16)
(10.0885 14.4494 1.91301e-16)
(9.48573 12.7471 2.97405e-16)
(9.08808 10.9223 -1.19024e-15)
(8.92319 9.00234 -1.52459e-15)
(9.0181 7.06028 1.78041e-15)
(9.36766 5.19409 -1.84765e-15)
(9.95789 3.47317 -8.28222e-16)
(10.7573 1.94443 -7.34784e-16)
(11.7046 0.643737 1.4177e-15)
(12.7398 -0.416937 -1.35729e-15)
(13.8172 -1.25357 -5.92392e-16)
(14.899 -1.89153 5.77224e-16)
(15.957 -2.35679 -1.24664e-15)
(16.9755 -2.67947 2.29834e-16)
(17.947 -2.88593 0)
(18.8701 -2.99825 -8.59211e-16)
(19.7493 -3.03312 3.0304e-16)
(20.5913 -3.00027 -1.16884e-15)
(21.4027 -2.9032 0)
(22.1873 -2.73854 7.13665e-16)
(22.9429 -2.49806 5.55821e-16)
(23.6546 -2.17027 -4.10175e-16)
(24.291 -1.76103 0)
(24.8293 -1.30287 -2.57163e-16)
(25.2712 -0.819661 0)
(25.6247 -0.323293 0)
(25.8933 0.176663 0)
(26.0793 0.669966 1.68664e-17)
(26.1866 1.1477 0)
(26.2205 1.60326 0)
(26.1844 2.03154 -7.8317e-18)
(26.0812 2.42838 -2.81711e-17)
(25.9029 2.7924 0)
(25.6513 3.12157 -5.79469e-16)
(25.2291 3.41742 6.46737e-17)
(24.7282 3.59746 0)
(23.2386 3.6396 -4.77391e-15)
(13.9202 17.2473 2.19733e-17)
(14.8598 18.2672 -1.57108e-17)
(15.9916 19.2897 0)
(17.2844 20.2538 8.9674e-18)
(18.7005 21.088 -9.70062e-17)
(20.2695 21.7931 1.56818e-16)
(21.9517 22.3303 4.40567e-17)
(23.7098 22.6674 -6.95921e-16)
(25.5232 22.7913 -8.71972e-17)
(27.3541 22.6904 1.07042e-15)
(29.1676 22.3599 -3.82708e-16)
(30.9338 21.8027 8.70534e-16)
(32.6197 21.0278 4.36405e-16)
(34.1959 20.0481 3.1726e-16)
(35.6364 18.8816 0)
(36.9172 17.5493 -6.05009e-16)
(38.0176 16.0748 -1.33932e-15)
(38.9135 14.4949 -4.97306e-15)
(39.5863 12.844 1.46881e-15)
(40.0258 11.1536 -1.86594e-15)
(40.2269 9.45805 -2.92294e-16)
(40.1926 7.79838 0)
(39.9384 6.21737 2.03666e-15)
(39.4946 4.75736 1.29756e-16)
(38.9114 3.45085 -5.79987e-17)
(38.2454 2.2857 -8.08352e-16)
(37.5247 1.2254 1.8649e-16)
(36.7493 0.259788 3.90408e-16)
(35.9199 -0.609771 -1.46137e-15)
(35.0418 -1.38589 -7.80655e-17)
(34.1146 -2.06995 2.48915e-15)
(33.1307 -2.66115 4.04176e-15)
(32.073 -3.15759 0)
(30.9177 -3.5553 -1.73559e-17)
(29.6149 -3.84677 -4.5208e-15)
(28.1309 -4.01443 0)
(26.2559 -4.026 -7.05712e-15)
(24.1221 -3.72878 0)
(20.0197 -3.15106 3.6555e-15)
(13.1205 16.1907 -2.83737e-17)
(12.401 15.0654 7.15273e-17)
(11.7452 13.7367 0)
(11.1653 12.2357 0)
(10.7572 10.628 5.09176e-16)
(10.5406 8.93014 2.51693e-15)
(10.5404 7.19635 0)
(10.7589 5.5134 -1.3628e-15)
(11.1871 3.94701 -1.3046e-15)
(11.8009 2.53224 1.30783e-15)
(12.5561 1.29921 -5.20047e-17)
(13.4073 0.263992 5.68236e-16)
(14.3193 -0.581514 3.03317e-17)
(15.2603 -1.25324 1.49034e-15)
(16.2043 -1.7672 1.33124e-15)
(17.1342 -2.14513 -1.24601e-15)
(18.0392 -2.4072 1.74476e-16)
(18.9136 -2.57163 -3.23894e-16)
(19.757 -2.65304 1.49632e-16)
(20.5718 -2.66112 8.64063e-16)
(21.3612 -2.60019 1.1134e-16)
(22.1265 -2.46897 -7.9215e-17)
(22.8642 -2.26146 -4.7308e-16)
(23.5609 -1.96981 0)
(24.1894 -1.59877 1.86272e-17)
(24.7279 -1.17464 4.82259e-16)
(25.1744 -0.720276 -2.3495e-18)
(25.5347 -0.24801 2.33078e-18)
(25.8116 0.232092 0)
(26.0068 0.709173 -1.58483e-17)
(26.124 1.17367 0)
(26.1677 1.61781 0)
(26.1414 2.03585 6.65008e-18)
(26.0476 2.42354 8.05552e-17)
(25.8791 2.77928 0)
(25.6375 3.09945 5.39893e-16)
(25.2324 3.38522 -3.73211e-15)
(24.751 3.54244 1.8228e-17)
(23.4174 3.56235 4.3723e-15)
(15.1298 16.2331 5.97154e-19)
(15.9763 17.148 -1.48463e-17)
(16.9951 18.0724 8.25371e-18)
(18.1537 18.9491 -8.03714e-18)
(19.4146 19.7142 6.7298e-17)
(20.8128 20.3743 0)
(22.3121 20.8948 -3.08075e-16)
(23.8813 21.2465 4.65081e-18)
(25.5081 21.4176 -3.19778e-16)
(27.1604 21.3954 -6.49016e-16)
(28.8105 21.1719 0)
(30.4341 20.7453 -1.58156e-15)
(32.0012 20.1185 -1.36288e-15)
(33.4845 19.2983 -3.32155e-15)
(34.8585 18.2967 0)
(36.0981 17.1294 -2.05275e-15)
(37.1798 15.8167 -2.15522e-15)
(38.0844 14.3783 2.34655e-15)
(38.7951 12.8374 -2.30957e-15)
(39.2957 11.227 2.14025e-15)
(39.5756 9.58585 2.6301e-16)
(39.6308 7.96116 -2.26427e-15)
(39.4701 6.40071 0)
(39.1171 4.94911 -1.94244e-15)
(38.6128 3.63873 1.13896e-16)
(38.0062 2.46378 8.45518e-16)
(37.3263 1.39484 0)
(36.578 0.421377 -2.89298e-17)
(35.7651 -0.455526 6.20735e-17)
(34.8967 -1.23803 2.38627e-15)
(33.9795 -1.92777 -2.21117e-15)
(33.0162 -2.52471 -3.83926e-15)
(32.0035 -3.0283 3.25029e-15)
(30.9321 -3.43668 -5.90101e-17)
(29.764 -3.74446 4.32124e-15)
(28.4708 -3.93429 5.99662e-15)
(26.8428 -3.97447 3.41684e-15)
(25.0022 -3.69034 -9.74719e-18)
(21.3023 -3.15296 -4.15604e-18)
(14.4039 15.2873 1.14441e-17)
(13.7474 14.2859 1.37676e-16)
(13.1369 13.1013 1.84136e-16)
(12.5844 11.7615 -3.50701e-16)
(12.1759 10.3292 -1.37638e-15)
(11.9273 8.8118 4.4938e-16)
(11.8613 7.2509 1.11883e-15)
(11.9852 5.72577 2.81478e-15)
(12.2929 4.29767 1.13066e-15)
(12.765 2.99183 -1.05949e-15)
(13.3686 1.83367 -3.363e-17)
(14.0686 0.839828 -5.0836e-16)
(14.8382 0.00561773 0)
(15.6519 -0.679012 -2.36698e-17)
(16.487 -1.22345 -8.23102e-16)
(17.3274 -1.64287 3.58095e-16)
(18.1616 -1.95176 -3.51311e-16)
(18.981 -2.16373 0)
(19.782 -2.29031 5.28042e-16)
(20.5637 -2.33991 -9.15208e-16)
(21.3263 -2.31652 0)
(22.0688 -2.2199 6.62712e-16)
(22.7866 -2.04596 0)
(23.467 -1.78966 -2.42216e-17)
(24.0862 -1.4553 2.39805e-17)
(24.6232 -1.0644 -2.37955e-16)
(25.0732 -0.638352 -4.39389e-18)
(25.4396 -0.190085 -2.44255e-18)
(25.7243 0.269864 5.15462e-19)
(25.9287 0.730392 -2.76624e-17)
(26.0555 1.18149 -3.14696e-17)
(26.1088 1.61517 3.77506e-17)
(26.0916 2.02524 8.70578e-19)
(26.0065 2.40665 2.64749e-17)
(25.8461 2.75689 0)
(25.6118 3.07025 1.14282e-17)
(25.2187 3.34681 1.73224e-15)
(24.7478 3.48284 -1.04154e-17)
(23.531 3.47648 4.00517e-15)
(16.1844 15.3415 4.35472e-18)
(16.9599 16.1669 2.24798e-17)
(17.8919 17.0045 0)
(18.9476 17.8007 -2.41353e-17)
(20.0896 18.4978 2.02421e-17)
(21.3554 19.106 0)
(22.7122 19.5936 -1.14947e-16)
(24.1327 19.9348 9.06015e-16)
(25.61 20.1192 -1.26692e-15)
(27.1179 20.1336 4.03693e-16)
(28.633 19.9688 5.54306e-16)
(30.1362 19.6202 2.01282e-15)
(31.6012 19.0867 1.44461e-15)
(33.003 18.3707 1.72463e-15)
(34.3171 17.4795 4.56716e-16)
(35.5179 16.4244 1.50918e-15)
(36.5815 15.2214 2.0689e-15)
(37.4857 13.8908 2.00783e-15)
(38.2082 12.4616 -1.47842e-15)
(38.7321 10.9647 -4.52474e-15)
(39.0464 9.43386 0)
(39.1479 7.90825 8.30399e-17)
(39.044 6.42946 1.76329e-15)
(38.7549 5.03714 1.84798e-15)
(38.3149 3.76145 -1.04917e-16)
(37.7646 2.60365 -7.62845e-16)
(37.1311 1.5437 5.46709e-18)
(36.4215 0.573623 -3.87247e-16)
(35.6399 -0.304207 4.07414e-17)
(34.794 -1.09001 -4.46975e-15)
(33.8907 -1.7843 -7.61425e-18)
(32.935 -2.38615 -6.02709e-17)
(31.9285 -2.89442 -3.11892e-15)
(30.8717 -3.30724 -5.8705e-17)
(29.743 -3.62038 -4.0298e-15)
(28.5376 -3.81773 -1.14428e-14)
(27.0771 -3.87263 3.23095e-15)
(25.5256 -3.59854 5.44672e-16)
(22.3203 -3.10939 2.93083e-15)
(15.5144 14.4897 -5.04735e-17)
(14.9066 13.5916 -1.87056e-16)
(14.3325 12.527 -1.34172e-16)
(13.8039 11.3208 -3.40635e-16)
(13.399 10.0338 7.68715e-16)
(13.1297 8.66584 -5.48634e-17)
(13.0179 7.25072 -2.78833e-15)
(13.0727 5.86234 -9.69588e-16)
(13.2892 4.55657 1.62717e-17)
(13.6524 3.35151 0)
(14.1359 2.2691 -9.06722e-16)
(14.7122 1.32498 8.45022e-16)
(15.3608 0.515717 -8.1299e-16)
(16.0615 -0.165474 -4.15825e-16)
(16.7958 -0.723663 3.46457e-16)
(17.5499 -1.16927 3.444e-16)
(18.3122 -1.51191 1.23181e-15)
(19.0736 -1.76101 -2.912e-16)
(19.8282 -1.92511 -4.93908e-16)
(20.5729 -2.01096 0)
(21.3051 -2.02194 -7.45681e-16)
(22.022 -1.95827 -5.5085e-16)
(22.7179 -1.81707 -1.16874e-17)
(23.3804 -1.59534 -5.8596e-17)
(23.9883 -1.29706 -1.8556e-17)
(24.5214 -0.93963 2.80978e-16)
(24.9728 -0.54277 -5.11903e-18)
(25.3437 -0.119702 4.04632e-17)
(25.6351 0.318782 6.65369e-18)
(25.8476 0.761472 2.52592e-17)
(25.9833 1.19801 -1.04885e-17)
(26.0457 1.61993 -9.36317e-17)
(26.0375 2.02038 -9.44359e-17)
(25.9607 2.3937 -9.61418e-17)
(25.8083 2.7366 -5.77023e-18)
(25.5813 3.04157 3.49383e-18)
(25.2001 3.30732 -1.7639e-15)
(24.7403 3.42314 -2.64541e-15)
(23.6205 3.39072 -3.68445e-15)
(17.0977 14.5524 -1.3381e-17)
(17.8127 15.3016 -8.58228e-18)
(18.6708 16.0645 -2.34261e-17)
(19.6389 16.7913 1.9468e-17)
(20.68 17.4286 4.09768e-17)
(21.8324 17.9898 -1.27577e-16)
(23.0659 18.4464 4.29012e-16)
(24.3559 18.775 0)
(25.6999 18.9675 3.86149e-16)
(27.0749 19.0113 1.23872e-17)
(28.4624 18.897 -4.75487e-16)
(29.8477 18.6186 -1.85604e-15)
(31.2081 18.1726 -7.55999e-16)
(32.5213 17.5584 0)
(33.7651 16.7792 0)
(34.9149 15.8426 0)
(35.9466 14.7608 0)
(36.8377 13.5509 -1.93876e-15)
(37.5674 12.2331 1.93454e-15)
(38.1171 10.8341 1.89405e-15)
(38.4731 9.38669 -1.52442e-15)
(38.629 7.92967 1.33704e-15)
(38.5883 6.50453 -1.37834e-15)
(38.3668 5.15075 -1.00824e-16)
(37.9927 3.89788 -4.59208e-17)
(37.5005 2.75109 7.71939e-16)
(36.9162 1.69682 1.66108e-16)
(36.2497 0.728878 0)
(35.506 -0.150045 0)
(34.6925 -0.938947 3.72731e-17)
(33.8154 -1.63767 0)
(32.8788 -2.24463 3.32103e-15)
(31.8841 -2.75792 -2.94672e-15)
(30.8332 -3.17474 -4.7445e-15)
(29.7102 -3.49044 7.51065e-15)
(28.5245 -3.68785 5.44443e-15)
(27.1303 -3.74517 -3.08184e-15)
(25.7601 -3.4683 -1.05754e-15)
(23.0491 -3.01901 -2.80064e-15)
(16.4761 13.7802 0)
(15.9104 12.9685 5.25222e-17)
(15.3688 12.0046 2.56221e-16)
(14.863 10.9108 -1.10083e-15)
(14.465 9.74584 9.63838e-16)
(14.183 8.5041 -7.60865e-16)
(14.039 7.21336 9.82583e-18)
(14.0426 5.94383 7.44286e-16)
(14.1898 4.74621 7.86316e-16)
(14.4683 3.63366 0)
(14.8564 2.62485 3.76529e-16)
(15.3316 1.73419 -1.14977e-15)
(15.8781 0.958313 1.81785e-15)
(16.4802 0.292054 3.30253e-16)
(17.1229 -0.267453 -6.71017e-16)
(17.7952 -0.72714 -6.23382e-16)
(18.4868 -1.09305 -5.71518e-16)
(19.1886 -1.37115 0)
(19.894 -1.56704 0)
(20.5981 -1.68543 0)
(21.2967 -1.72869 7.01541e-16)
(21.9851 -1.69694 0)
(22.657 -1.58801 -4.46991e-16)
(23.3002 -1.40016 -5.67442e-17)
(23.895 -1.137 -3.34884e-16)
(24.4223 -0.812771 -2.49166e-16)
(24.8734 -0.445294 0)
(25.2475 -0.0478213 -3.36807e-17)
(25.5445 0.368708 -7.0886e-18)
(25.7643 0.792996 1.30035e-18)
(25.9084 1.2144 8.75159e-17)
(25.9796 1.62402 -1.7954e-17)
(25.9802 2.01453 9.13524e-17)
(25.9119 2.37955 -1.41073e-16)
(25.7676 2.71497 0)
(25.5481 3.01146 -1.12012e-17)
(25.1791 3.26615 -3.88615e-17)
(24.7325 3.36358 2.51722e-15)
(23.7016 3.3068 -2.17557e-17)
(17.9003 13.8453 1.54426e-17)
(18.5645 14.5281 0)
(19.3605 15.2254 6.21832e-17)
(20.2552 15.8901 -2.93893e-17)
(21.212 16.4729 -2.65777e-17)
(22.2695 16.9893 1.19636e-16)
(23.3991 17.4129 -1.89192e-16)
(24.5786 17.7235 -2.3234e-16)
(25.808 17.9143 0)
(27.0676 17.9739 -4.11311e-16)
(28.3425 17.8931 -4.42513e-16)
(29.6214 17.6654 4.38881e-16)
(30.8848 17.286 1.64505e-15)
(32.1141 16.7516 6.61336e-16)
(33.289 16.0627 -2.00228e-15)
(34.3864 15.2237 -1.44444e-15)
(35.3832 14.2433 1.13789e-15)
(36.2569 13.135 8.40437e-16)
(36.9859 11.9176 -4.22909e-16)
(37.55 10.6167 4.22375e-16)
(37.9343 9.26183 1.07189e-15)
(38.131 7.88761 1.99405e-16)
(38.1413 6.53166 -1.87538e-16)
(37.9774 5.23061 -1.24745e-15)
(37.6621 4.01255 0)
(37.2241 2.88575 -6.53985e-16)
(36.6871 1.84309 -3.12184e-16)
(36.0627 0.881344 -2.87926e-16)
(35.3572 0.00417749 -1.06465e-15)
(34.578 -0.785963 3.98351e-15)
(33.7314 -1.48789 1.6391e-15)
(32.8212 -2.09938 4.13365e-18)
(31.848 -2.61766 3.75972e-17)
(30.8126 -3.03891 0)
(29.699 -3.35749 -3.54208e-15)
(28.519 -3.55394 0)
(27.143 -3.60949 0)
(25.8358 -3.32069 5.10564e-16)
(23.5257 -2.89134 5.36119e-18)
(17.3197 13.1415 -5.18047e-17)
(16.79 12.4039 1.74691e-16)
(16.2769 11.5263 1.19737e-17)
(15.7922 10.5288 2.45841e-16)
(15.4029 9.46769 -8.7825e-16)
(15.114 8.33385 6.36968e-16)
(14.947 7.15067 3.12671e-17)
(14.9124 5.98528 -6.22457e-16)
(15.0065 4.88344 -6.09937e-16)
(15.2186 3.85491 -6.49536e-16)
(15.5304 2.91594 -1.28632e-15)
(15.923 2.0795 0)
(16.3838 1.34168 -6.58533e-16)
(16.9005 0.697918 -2.3106e-17)
(17.4614 0.146678 0)
(18.0577 -0.317069 -5.52205e-16)
(18.6812 -0.696671 -2.63021e-16)
(19.3236 -0.995517 -2.47093e-16)
(19.9782 -1.21676 8.505e-16)
(20.6394 -1.363 7.57479e-16)
(21.3018 -1.4353 -7.81572e-17)
(21.9596 -1.43339 5.82088e-16)
(22.6055 -1.3554 1.1363e-16)
(23.2277 -1.20019 -5.48086e-17)
(23.8078 -0.971047 2.99217e-16)
(24.3273 -0.679648 1.81626e-17)
(24.7762 -0.341758 0)
(25.152 0.0296256 0)
(25.4534 0.423483 -1.42084e-18)
(25.6798 0.828545 3.40539e-18)
(25.8317 1.23397 -1.05354e-16)
(25.9114 1.63043 -1.75358e-17)
(25.9205 2.01019 1.51016e-16)
(25.8606 2.36612 1.34938e-16)
(25.7246 2.69331 7.70757e-18)
(25.5131 2.98076 3.68179e-18)
(25.157 3.22393 3.31051e-15)
(24.7248 3.30434 -2.41314e-15)
(23.7786 3.22565 2.03176e-17)
(18.6094 13.2064 5.94075e-18)
(19.2296 13.8313 0)
(19.9718 14.4705 -3.6242e-17)
(20.8033 15.0798 0)
(21.6876 15.6139 -6.55453e-17)
(22.6632 16.0888 6.34635e-17)
(23.703 16.4809 1.43853e-16)
(24.7865 16.7722 2.19014e-16)
(25.9152 16.9572 0)
(27.072 17.0259 -2.71637e-16)
(28.2449 16.9699 4.53048e-16)
(29.4255 16.7827 -9.30883e-16)
(30.5975 16.4586 -5.21477e-16)
(31.7448 15.9933 -5.31179e-16)
(32.8498 15.3851 1.27638e-15)
(33.8915 14.6356 1.38075e-15)
(34.848 13.7508 -1.47887e-15)
(35.6974 12.7412 -1.46995e-15)
(36.4185 11.6221 0)
(36.9913 10.4146 3.879e-16)
(37.3993 9.14544 -7.50954e-16)
(37.6328 7.84694 1.84811e-16)
(37.6904 6.55462 3.96206e-18)
(37.5806 5.30341 2.94977e-15)
(37.3213 4.12021 -1.61303e-16)
(36.9359 3.01519 9.7747e-17)
(36.4458 1.98611 2.89777e-16)
(35.8634 1.03244 3.0672e-16)
(35.1959 0.158743 9.19755e-16)
(34.4509 -0.631197 -1.84096e-15)
(33.6352 -1.33517 -1.50857e-15)
(32.7531 -1.95028 -5.91124e-15)
(31.8051 -2.47302 5.0839e-15)
(30.7918 -2.89856 -7.19331e-17)
(29.6967 -3.22041 3.30876e-15)
(28.5297 -3.41657 -1.02695e-16)
(27.1703 -3.47062 5.69978e-17)
(25.8647 -3.16941 4.89474e-18)
(23.8305 -2.73944 -2.16841e-15)
(18.0647 12.5624 2.56377e-17)
(17.5665 11.8887 -9.00719e-17)
(17.0792 11.0858 1.76912e-16)
(16.614 10.1717 0)
(16.2344 9.20041 5.12912e-16)
(15.9429 8.15981 0)
(15.7598 7.07088 0)
(15.6965 5.99722 0)
(15.7495 4.98054 1.13557e-15)
(15.9091 4.02817 -5.59708e-16)
(16.1597 3.15452 6.32171e-16)
(16.4847 2.37129 0)
(16.8737 1.6738 0)
(17.317 1.05743 -5.68297e-16)
(17.8053 0.521245 0)
(18.3323 0.0613881 5.15079e-16)
(18.8914 -0.324112 1.15895e-17)
(19.4758 -0.636548 0)
(20.0793 -0.877016 -6.08886e-16)
(20.6961 -1.04641 -8.99464e-16)
(21.3203 -1.14452 -6.24309e-16)
(21.9454 -1.17033 -5.40083e-16)
(22.5637 -1.12178 9.20222e-16)
(23.1635 -0.997936 0)
(23.7272 -0.801662 3.03536e-16)
(24.2369 -0.542406 2.77552e-16)
(24.6819 -0.234026 1.02347e-16)
(25.0579 0.110993 0)
(25.3627 0.481685 -7.35545e-18)
(25.5947 0.866868 -4.32111e-17)
(25.7539 1.25561 1.1797e-16)
(25.8417 1.63826 -1.70615e-17)
(25.8592 2.00663 -1.38068e-16)
(25.8077 2.35291 1.69394e-16)
(25.68 2.67137 -2.13505e-18)
(25.4768 2.94944 7.70068e-18)
(25.1344 3.18075 -3.24417e-15)
(24.7176 3.24581 2.26144e-15)
(23.8524 3.14794 5.75206e-15)
(19.2403 12.6248 2.83491e-18)
(19.822 13.1986 -1.75581e-17)
(20.5172 13.7861 0)
(21.2936 14.3457 -1.74527e-17)
(22.1151 14.8354 0)
(23.0199 15.2719 0)
(23.9816 15.6337 1.91225e-17)
(24.9812 15.9046 1.91454e-16)
(26.0216 16.0806 4.44246e-16)
(27.0875 16.1526 1.14082e-15)
(28.1691 16.1136 6.48182e-16)
(29.2604 15.9571 7.50376e-16)
(30.3474 15.6773 0)
(31.4173 15.2689 1.46625e-15)
(32.4544 14.7289 -5.19301e-16)
(33.44 14.057 0)
(34.354 13.2566 1.23436e-15)
(35.1753 12.3354 1.40771e-15)
(35.8836 11.3062 0)
(36.4587 10.1871 1.37811e-15)
(36.8831 9.00231 -1.34729e-15)
(37.1459 7.78089 0)
(37.2437 6.55518 -1.59698e-16)
(37.1818 5.35773 3.08173e-17)
(36.9739 4.214 7.60479e-17)
(36.6386 3.1354 1.13963e-15)
(36.1944 2.12357 -3.89367e-18)
(35.6536 1.18083 -3.03383e-17)
(35.0242 0.31293 -2.55194e-17)
(34.3137 -0.475104 5.58296e-17)
(33.5291 -1.17982 1.51968e-15)
(32.6751 -1.7975 5.34796e-15)
(31.753 -2.32392 4.22131e-17)
(30.7636 -2.75327 -3.86816e-15)
(29.6914 -3.07829 -3.00518e-15)
(28.5445 -3.27471 -4.41964e-15)
(27.213 -3.32787 -2.54341e-15)
(25.9019 -3.01979 1.88866e-17)
(24.0447 -2.57682 2.01863e-15)
(18.727 12.0335 -5.8232e-17)
(18.2569 11.4157 -2.15474e-16)
(17.7929 10.6782 4.26532e-16)
(17.3464 9.83729 0)
(16.9768 8.94424 8.2076e-16)
(16.6857 7.98537 0)
(16.4915 6.9797 -4.47255e-16)
(16.4066 5.98737 1.79516e-15)
(16.4276 5.04667 -1.38719e-15)
(16.5457 4.1635 0)
(16.7468 3.35046 1.02571e-15)
(17.0162 2.61818 9.90505e-16)
(17.345 1.9614 0)
(17.7254 1.37536 -9.74661e-16)
(18.15 0.859079 2.3548e-16)
(18.6144 0.409017 -2.35587e-16)
(19.1136 0.024144 2.28997e-16)
(19.6424 -0.295541 4.01664e-16)
(20.1954 -0.54964 -1.50651e-17)
(20.7673 -0.737538 4.84597e-16)
(21.352 -0.857793 1.42343e-16)
(21.9428 -0.908596 -1.36646e-16)
(22.532 -0.887546 -4.37739e-16)
(23.1079 -0.793498 3.74596e-16)
(23.6536 -0.628676 -2.6969e-16)
(24.1518 -0.400748 -2.81882e-16)
(24.5911 -0.121666 -9.74014e-17)
(24.9659 0.1968 -1.07256e-18)
(25.2728 0.543866 8.09897e-18)
(25.5096 0.908559 4.13389e-17)
(25.6754 1.27993 9.12481e-18)
(25.7708 1.64803 -1.65495e-17)
(25.7966 2.00432 1.9498e-16)
(25.7534 2.34031 -1.73649e-16)
(25.6344 2.64943 8.21313e-18)
(25.4398 2.9177 -6.13512e-16)
(25.1118 3.13697 1.58109e-15)
(24.7114 3.18814 0)
(23.9234 3.07347 -5.51725e-15)
(19.8045 12.0922 9.77793e-18)
(20.3521 12.6204 0)
(21.0057 13.1615 0)
(21.7334 13.6763 1.19195e-17)
(22.4998 14.1259 -1.97411e-17)
(23.3422 14.527 0)
(24.2353 14.8601 0)
(25.161 15.1107 -6.24767e-16)
(26.1233 15.2759 -3.1564e-17)
(27.1082 15.3479 -3.86685e-17)
(28.1075 15.3203 -1.50059e-15)
(29.1174 15.1873 -3.93871e-16)
(30.1259 14.9434 7.51412e-16)
(31.1225 14.5829 -6.43092e-17)
(32.0939 14.1019 0)
(33.0235 13.4985 0)
(33.8932 12.7744 -3.38614e-15)
(34.6832 11.9347 -6.22509e-16)
(35.3738 10.9898 6.36777e-16)
(35.9458 9.9544 -1.33669e-15)
(36.3812 8.85 2.53894e-15)
(36.6678 7.70271 1.20242e-15)
(36.8003 6.54219 -1.1635e-15)
(36.7812 5.39882 -1.31258e-15)
(36.6207 4.29659 2.07886e-16)
(36.333 3.24734 -1.12259e-15)
(35.9335 2.25556 -1.2661e-16)
(35.4342 1.32621 2.82132e-17)
(34.843 0.466201 -2.81665e-17)
(34.1674 -0.318156 9.45493e-17)
(33.4144 -1.02222 -3.90655e-17)
(32.5891 -1.64142 -2.64098e-15)
(31.6932 -2.17064 -9.96589e-17)
(30.728 -2.60319 1.1797e-16)
(29.6797 -2.93097 0)
(28.5559 -3.12792 4.10682e-15)
(27.2593 -3.18002 2.37991e-15)
(25.9578 -2.8713 0)
(24.2231 -2.41187 0)
(19.3194 11.5476 0)
(18.8743 10.9793 1.92768e-16)
(18.4319 10.2996 -6.37955e-16)
(18.003 9.52344 -3.07631e-16)
(17.6437 8.69942 -7.45457e-16)
(17.3548 7.8127 0)
(17.1536 6.8811 0)
(17.0524 5.96136 -8.04333e-16)
(17.0485 5.08891 8.3969e-16)
(17.1334 4.26847 0)
(17.2942 3.51132 -4.34728e-16)
(17.5178 2.82729 -4.6806e-16)
(17.7963 2.21073 4.42312e-16)
(18.1229 1.65633 4.57956e-16)
(18.4919 1.16289 -8.50006e-16)
(18.9002 0.727021 0)
(19.3444 0.347978 -1.91558e-16)
(19.8205 0.0264918 1.20915e-17)
(20.3246 -0.23611 8.47982e-16)
(20.8517 -0.43806 -1.56179e-16)
(21.3963 -0.5768 1.49672e-16)
(21.9518 -0.649747 -1.14099e-16)
(22.5106 -0.654005 1.61265e-16)
(23.0614 -0.588015 -7.62904e-16)
(23.5877 -0.45318 -2.69441e-16)
(24.0726 -0.255535 2.31349e-16)
(24.5044 -0.00532036 -1.40784e-17)
(24.8765 0.286592 0)
(25.1843 0.609755 -7.92233e-18)
(25.4249 0.953457 4.62961e-17)
(25.5965 1.30683 -6.4652e-17)
(25.6992 1.65972 1.07431e-16)
(25.733 2.00325 -4.03849e-16)
(25.6981 2.32833 4.34683e-16)
(25.588 2.62756 -6.69048e-18)
(25.4024 2.88569 5.81608e-16)
(25.0895 3.09271 2.99343e-17)
(24.7065 3.13159 -6.60363e-17)
(23.9917 3.00272 -4.94743e-15)
(20.3114 11.6019 -9.27272e-18)
(20.8284 12.0892 0)
(21.4448 12.5885 0)
(22.1292 13.0626 3.50697e-18)