/*--------------------------------*- C++ -*----------------------------------*\
  =========                 |
  \\      /  F ield         | OpenFOAM: The Open Source CFD Toolbox
   \\    /   O peration     | Website:  https://openfoam.org
    \\  /    A nd           | Version:  7
     \\/     M anipulation  |
\*---------------------------------------------------------------------------*/
FoamFile
{
    version     2.0;
    format      ascii;
    class       volScalarField;
    location    "200";
    object      p;
}
// * * * * * * * * * * * * * * * * * * * * * * * * * * * * * * * * * * * * * //

dimensions      [0 2 -2 0 0 0 0];

internalField   nonuniform List<scalar> 
10720
(
-87.0937
-160.93
-248.083
-333.359
-411.682
-491.549
-561.946
-620.725
-671.73
-711.364
-741.595
-763.725
-778.529
-787.207
-790.219
-787.114
-778.803
-763.946
-743.685
-716.644
-683.854
-644.512
-600.846
-553.761
-506.753
-464.897
-427.185
-390.037
-353.174
-316.82
-280.795
-244.959
-209.209
-173.317
-137.03
-99.2478
-59.6114
-12.1735
35.4597
-12.4148
55.4212
128.544
197.25
256.367
301.902
330.195
340.955
340.082
328.901
308.987
285.829
262.319
239.481
218.004
197.747
178.798
160.746
143.338
126.079
108.922
91.549
74.0537
56.835
41.7905
29.9894
20.3783
12.5691
6.56495
2.42247
0.0445116
-0.675007
0.184088
2.62495
6.65857
12.7022
21.3086
36.2033
61.2887
25.3918
-30.8095
-93.5891
-160.09
-228.243
-297.87
-365.307
-428.453
-486.682
-538.216
-582.732
-620.215
-650.732
-674.353
-691.002
-700.382
-703.096
-698.714
-687.782
-669.686
-644.982
-613.396
-576.606
-535.757
-493.927
-455.425
-419.796
-384.252
-348.627
-313.235
-277.988
-242.783
-207.542
-172.057
-136.085
-98.5438
-59.093
-11.7441
35.1328
76.0508
124.509
173.047
220.19
262.059
296.047
319.161
330.195
330.501
321.334
305.307
285.783
264.87
243.679
222.97
203.004
183.94
165.624
147.881
130.39
113.06
95.6807
78.3374
61.4385
46.461
34.3208
24.2953
16.058
9.63153
5.07057
2.3048
1.23624
1.78274
3.94655
7.74845
13.6096
22.0733
36.8791
60.9501
41.6717
-8.62769
-65.058
-127.184
-191.436
-257.137
-322.694
-385.412
-443.718
-496.62
-542.882
-582.193
-614.371
-639.347
-657.311
-668.462
-673.032
-670.835
-662.063
-646.481
-624.389
-595.841
-562.094
-524.428
-485.392
-448.517
-413.915
-379.43
-344.746
-310.14
-275.551
-240.885
-206.077
-170.936
-135.233
-97.9032
-58.6252
-11.4674
34.8842
87.1518
131.539
175.854
218.082
254.853
284.556
305.155
315.989
317.76
311.317
298.574
281.812
262.866
243.01
223.118
203.65
184.835
166.668
149.029
131.687
114.519
97.387
80.3546
63.7952
48.88
36.5049
26.2613
17.8367
11.2328
6.49489
3.56222
2.337
2.73897
4.77168
8.46426
14.239
22.6364
37.3194
60.407
66.2845
23.9593
-24.2389
-77.1631
-132.62
-190.537
-249.245
-306.918
-362.225
-414.026
-461.183
-503.024
-539.066
-569.015
-592.648
-609.964
-620.726
-624.66
-621.709
-611.753
-594.964
-571.548
-542.522
-509.21
-473.814
-439.351
-406.405
-373.394
-339.941
-306.33
-272.567
-238.578
-204.319
-169.617
-134.258
-97.2071
-58.1665
-11.3258
34.491
104.252
140.854
177.67
213.381
244.878
270.919
289.682
300.428
303.442
299.256
289.337
275.388
258.895
241.023
222.618
204.196
186.059
168.319
150.942
133.796
116.792
99.8567
83.062
66.7589
51.9099
39.3591
28.9035
20.2559
13.4111
8.41973
5.23311
3.76505
3.94464
5.7809
9.31054
14.9549
23.242
37.7266
59.8352
74.3107
36.6989
-6.34412
-53.9203
-103.915
-156.731
-210.97
-264.986
-317.753
-368.114
-414.919
-457.376
-494.812
-526.696
-552.641
-572.413
-585.645
-592.222
-592.006
-584.986
-571.268
-551.135
-525.416
-495.368
-462.887
-430.486
-398.975
-367.243
-334.906
-302.236
-269.284
-235.989
-202.314
-168.098
-133.136
-96.4235
-57.6887
-11.2709
33.8606
108.14
140.58
173.295
205.028
233.038
256.487
273.906
284.57
288.543
286.236
278.754
267.377
253.257
237.392
220.575
203.339
186.043
168.886
151.921
135.103
118.384
101.74
85.2576
69.263
54.556
41.9089
31.2813
22.4441
15.3941
10.1856
6.78331
5.11125
5.10444
6.77353
10.1604
15.6845
23.8567
38.1134
59.2278
79.4191
46.0783
7.71471
-34.677
-79.2501
-126.712
-175.764
-225.092
-273.945
-321.264
-366.065
-407.581
-445.069
-477.893
-505.554
-527.649
-543.805
-553.773
-557.279
-554.173
-544.457
-528.362
-506.565
-480.211
-450.952
-420.911
-391.06
-360.728
-329.593
-297.919
-265.809
-233.23
-200.16
-166.454
-131.919
-95.5859
-57.2146
-11.331
33.0001
109.406
138.043
167.119
195.518
220.714
242.091
258.434
268.974
273.648
272.836
267.368
258.233
246.324
232.466
217.357
201.501
185.269
168.908
152.539
136.187
119.859
103.571
87.4308
71.7495
57.2077
44.5077
33.7345
24.7266
17.4831
12.061
8.4392
6.55253
6.3438
7.82874
11.0561
16.4426
24.4789
38.4622
58.567
80.4965
50.4189
15.7128
-22.6662
-62.9432
-106.064
-150.865
-196.2
-241.562
-286.003
-328.671
-368.87
-405.838
-438.896
-467.468
-491.038
-509.128
-521.345
-527.353
-526.963
-520.164
-507.174
-488.562
-465.346
-438.948
-411.136
-382.925
-353.989
-324.072
-293.418
-262.172
-230.329
-197.883
-164.708
-130.627
-94.7081
-56.7561
-11.5167
31.9224
107.577
133.356
159.659
185.453
208.424
228.133
243.571
253.939
259.114
259.471
255.647
248.42
238.494
226.53
213.121
198.709
183.652
168.219
152.575
136.804
120.958
105.099
89.3514
74.0151
59.6821
46.9923
36.1202
26.9731
19.5583
13.9376
10.1055
8.01016
7.60287
8.90481
11.9709
17.2126
25.0981
38.7648
57.8589
79.7339
52.4252
20.8434
-14.0535
-50.5815
-89.8181
-130.692
-172.205
-214.024
-255.342
-295.417
-333.666
-369.386
-401.906
-430.62
-454.958
-474.366
-488.419
-496.734
-499.028
-495.192
-485.361
-469.977
-449.91
-426.38
-400.873
-374.405
-346.93
-318.285
-288.7
-258.358
-227.285
-195.492
-162.871
-129.268
-93.7958
-56.3142
-11.82
30.6411
104.358
127.744
151.734
175.369
196.497
214.816
229.46
239.612
245.135
246.389
243.885
238.256
230.063
219.832
208.053
195.097
181.286
166.887
152.085
137.003
121.735
106.377
91.0716
76.1119
62.0268
49.4015
38.4727
29.2148
21.6491
15.8436
11.8092
9.50841
8.90163
10.0163
12.9137
17.9986
25.7144
39.0202
57.1088
77.6214
52.6178
23.6646
-8.30287
-41.6613
-77.5545
-115.012
-153.132
-191.727
-230.09
-267.599
-303.781
-337.995
-369.612
-398.039
-422.679
-442.942
-458.338
-468.429
-472.856
-471.441
-464.273
-451.703
-434.463
-413.589
-390.311
-365.595
-339.598
-312.247
-283.767
-254.363
-224.094
-192.985
-160.949
-127.851
-92.8562
-55.8859
-12.2258
29.1798
100.2
121.608
143.675
165.5
185.068
202.211
216.142
226.046
231.799
233.737
232.288
227.981
221.277
212.595
202.334
190.791
178.245
164.939
151.061
136.755
122.145
107.355
92.5441
77.9992
64.2038
51.6977
40.7592
31.424
23.7325
17.7606
13.5354
11.0351
10.2307
11.1563
13.8798
18.7969
26.3239
39.2274
56.3175
74.7345
51.7076
25.0216
-4.40672
-35.0183
-67.9837
-102.4
-137.452
-173.058
-208.594
-243.55
-277.545
-310.008
-340.392
-368.127
-392.616
-413.271
-429.564
-441.032
-447.279
-448.036
-443.322
-433.382
-418.816
-400.486
-379.407
-356.471
-331.98
-305.955
-278.612
-250.181
-220.749
-190.359
-158.94
-126.379
-91.8954
-55.4721
-12.7235
27.5708
95.5647
115.287
135.711
155.986
174.215
190.336
203.618
213.251
219.141
221.594
220.984
217.763
212.322
205.002
196.123
185.92
174.619
162.431
149.53
136.069
122.187
108.027
93.761
79.6705
66.2065
53.872
42.9718
33.5946
25.8039
19.6852
15.282
12.5893
11.5898
12.3244
14.8682
19.6057
26.9247
39.3861
55.4868
71.3723
50.0534
25.3345
-1.88806
-30.1067
-60.5066
-92.2375
-124.558
-157.446
-190.359
-222.882
-254.719
-285.366
-314.345
-341.14
-365.186
-385.9
-402.746
-415.222
-422.925
-425.496
-422.896
-415.292
-403.154
-387.191
-368.23
-347.068
-324.096
-299.413
-273.239
-245.812
-217.25
-187.61
-156.84
-124.851
-90.9168
-55.0768
-13.3072
25.8387
90.6907
108.963
127.966
146.895
163.957
179.175
191.857
201.209
207.162
209.999
210.05
207.719
203.343
197.205
189.566
180.605
170.499
159.422
147.526
134.956
121.857
108.381
94.7066
81.1096
68.0188
55.9069
45.0934
35.7119
27.851
21.6076
17.0415
14.1654
12.9748
13.5177
15.8767
20.4228
27.5142
39.4967
54.6202
67.7541
47.9327
24.9427
-0.339156
-26.4565
-54.5885
-83.9295
-113.796
-144.216
-174.709
-204.933
-234.664
-263.471
-290.945
-316.624
-339.981
-360.469
-377.555
-390.719
-399.559
-403.656
-402.906
-397.394
-387.48
-373.729
-356.804
-337.4
-315.953
-292.629
-267.647
-241.255
-213.592
-184.735
-154.65
-123.266
-89.9216
-54.7044
-13.9753
23.9988
85.7512
102.757
120.516
138.259
154.293
168.699
180.82
189.888
195.846
198.962
199.536
197.93
194.445
189.324
182.783
174.956
165.976
155.979
145.089
133.435
121.159
108.413
95.3723
82.3077
69.6304
57.7895
47.1106
37.764
29.8639
23.5197
18.8079
15.7589
14.3825
14.7335
16.9029
21.2459
28.0901
39.5602
53.7206
64.0241
45.5244
24.0677
0.505979
-23.7511
-49.8673
-77.0763
-104.738
-132.923
-161.201
-189.283
-217.009
-244.009
-269.94
-294.399
-316.909
-336.959
-354.037
-367.62
-377.309
-382.652
-383.474
-379.798
-371.883
-360.171
-345.179
-327.497
-307.57
-285.611
-261.841
-236.509
-209.777
-181.734
-152.366
-121.625
-88.9108
-54.3581
-14.7244
22.06
80.8489
96.7431
113.395
130.081
145.199
158.87
170.465
179.247
185.166
188.481
189.463
188.446
185.706
181.456
175.877
169.071
161.134
152.168
142.266
131.537
120.108
108.123
95.7517
83.2559
71.0311
59.5064
49.0094
39.7379
31.8308
25.4119
20.5734
17.3639
15.8083
15.9686
17.9438
22.0723
28.6501
39.5775
52.7917
60.2787
42.9567
22.8714
0.84718
-21.75
-46.0637
-71.3623
-97.0391
-123.199
-149.451
-175.547
-201.381
-226.636
-251.027
-274.213
-295.768
-315.216
-332.082
-345.853
-356.131
-362.467
-364.612
-362.534
-356.408
-346.565
-333.397
-317.387
-298.964
-278.37
-255.825
-231.578
-205.803
-178.606
-149.989
-119.926
-87.8845
-54.0408
-15.5502
20.0303
76.0564
90.9579
106.623
122.356
136.651
149.646
160.745
169.244
175.092
178.542
179.843
179.303
177.183
173.673
168.932
163.036
156.054
148.057
139.11
129.295
118.72
107.517
95.8447
83.9496
72.2126
61.0468
50.7769
41.6211
33.7408
27.2745
22.3302
18.9744
17.2476
17.2192
18.9965
22.8991
29.1919
39.5508
51.837
56.5817
40.3194
21.4684
0.828608
-20.2795
-42.9734
-66.5489
-90.4358
-114.756
-139.151
-163.415
-187.478
-211.073
-233.965
-255.861
-276.391
-295.124
-311.619
-325.392
-336.042
-343.138
-346.371
-345.664
-341.119
-332.972
-321.505
-307.103
-290.157
-270.919
-249.607
-226.463
-201.671
-175.349
-147.517
-118.17
-86.843
-53.7524
-16.4489
17.9189
71.4182
85.4271
100.199
115.07
128.617
140.988
151.62
159.839
165.592
169.124
170.67
170.516
168.912
166.032
162.016
156.927
150.81
143.71
135.67
126.744
117.019
106.609
95.6553
84.3866
73.1688
62.4009
52.401
43.4011
35.5821
29.0973
24.0696
20.5833
18.6949
18.481
20.0572
23.7235
29.7132
39.4819
50.8609
52.9768
37.6756
19.9426
0.557108
-19.2074
-40.4351
-62.4509
-84.7162
-107.363
-130.061
-152.639
-175.054
-197.078
-218.522
-239.143
-258.614
-276.554
-292.559
-306.178
-317.011
-324.662
-328.774
-329.226
-326.062
-319.44
-309.55
-296.681
-281.174
-263.275
-243.196
-221.17
-197.384
-171.966
-144.951
-116.357
-85.7862
-53.4936
-17.4139
15.7348
66.9609
80.1622
94.1215
108.206
121.068
132.86
143.05
150.992
156.633
160.208
161.941
162.099
160.921
158.573
155.184
150.803
145.463
139.188
131.997
123.925
115.034
105.415
95.1896
84.5677
73.8971
63.5615
53.8713
45.0663
37.3434
30.8697
25.7828
22.1833
20.1441
19.7492
21.122
24.5423
30.2121
39.3735
49.8674
49.494
35.0674
18.3532
0.111562
-18.434
-38.3283
-58.9283
-79.7177
-100.839
-121.987
-143.012
-163.895
-184.444
-204.507
-223.883
-242.29
-259.389
-274.816
-288.157
-299.02
-307.043
-311.842
-313.259
-311.288
-306.024
-297.58
-286.158
-272.041
-255.457
-236.606
-215.707
-192.945
-168.457
-142.292
-114.487
-84.7143
-53.2626
-18.4381
13.4876
62.7
75.1666
88.3818
101.743
113.974
125.225
134.997
142.668
148.181
151.77
153.641
154.049
153.225
151.329
148.478
144.718
140.07
134.545
128.143
120.88
112.794
103.954
94.4603
84.498
74.396
64.5228
55.1785
46.6057
39.0135
32.5814
27.4601
23.7663
21.5887
21.0185
22.1866
25.3519
30.6866
39.2283
48.861
46.1515
32.5252
16.7473
-0.449919
-17.8804
-36.5604
-55.8666
-75.3107
-95.0367
-114.764
-134.359
-153.824
-172.995
-191.752
-209.927
-227.278
-243.512
-258.3
-271.265
-282.034
-290.27
-295.588
-297.792
-296.838
-292.771
-285.642
-275.573
-262.788
-247.487
-229.851
-210.082
-188.359
-164.824
-139.539
-112.56
-83.6262
-53.0581
-19.5133
11.1892
58.6432
70.4366
82.9672
95.6609
107.306
118.052
127.425
134.831
140.209
143.786
145.758
146.365
145.835
144.319
141.931
138.712
134.678
129.829
124.154
117.648
110.332
102.252
93.4824
84.1851
74.6676
65.2817
56.3152
48.0096
40.5817
34.2216
29.092
25.324
23.0214
22.2832
23.2461
26.1491
31.135
39.0496
47.8469
42.9595
30.0707
15.1538
-1.08052
-17.4911
-35.0559
-53.1778
-71.3885
-89.8384
-108.26
-126.539
-144.693
-162.579
-180.103
-197.129
-213.45
-228.812
-242.923
-255.439
-266.015
-274.33
-280.019
-282.849
-282.749
-279.725
-273.779
-264.966
-253.447
-239.388
-222.947
-204.306
-183.634
-161.073
-136.697
-110.578
-82.522
-52.8776
-20.6306
8.85145
54.7928
65.9659
77.863
89.938
101.036
111.308
120.303
127.449
132.685
136.231
138.273
139.039
138.752
137.558
135.567
132.82
129.328
125.085
120.072
114.271
107.682
100.332
92.2723
83.6394
74.7168
65.8376
57.2762
49.2694
42.038
35.78
30.6686
26.8475
24.4346
23.5369
24.2955
26.9302
31.5558
38.8406
46.83
39.9245
27.7177
13.5967
-1.74879
-17.2192
-33.759
-50.7908
-67.8703
-85.1472
-102.369
-119.434
-136.373
-153.062
-169.428
-185.363
-200.689
-215.188
-228.6
-240.617
-250.92
-259.203
-265.132
-268.446
-269.051
-266.926
-262.035
-254.376
-244.051
-231.186
-215.914
-198.392
-178.777
-157.207
-133.766
-108.541
-81.4005
-52.7178
-21.7805
6.48653
51.1474
61.7467
73.0554
84.5548
95.1411
104.964
113.6
120.493
125.583
129.084
131.172
132.064
131.976
131.055
129.404
127.066
124.051
120.35
115.937
110.783
104.876
98.2224
90.8515
82.8749
74.5506
66.1917
58.0579
50.3781
43.3733
37.2467
32.1798
28.3276
25.8204
24.7731
25.3294
27.6915
31.9477
38.6048
45.8151
37.048
25.4744
12.0929
-2.42846
-17.0308
-32.6232
-48.6505
-64.6878
-80.884
-97.0005
-112.947
-128.761
-144.338
-159.62
-174.521
-188.894
-202.546
-215.252
-226.734
-236.702
-244.865
-250.923
-254.595
-255.77
-254.41
-250.45
-243.842
-234.633
-222.909
-208.772
-192.355
-173.798
-153.233
-130.75
-106.451
-80.2601
-52.5743
-22.9524
4.10801
47.7042
57.7696
68.5294
79.4906
89.5966
98.9958
107.288
113.937
118.879
122.323
124.436
125.427
125.505
124.814
123.455
121.472
118.876
115.656
111.783
107.221
101.947
95.9507
89.2421
81.907
74.1781
66.3476
58.6588
51.3303
44.5795
38.6123
33.6161
29.7551
27.1703
25.9844
26.3421
28.4291
32.3095
38.3458
44.8073
34.3298
23.3462
10.653
-3.10124
-16.8982
-31.6134
-46.7108
-61.7856
-76.9824
-92.0787
-106.991
-121.766
-136.309
-150.578
-164.507
-177.968
-190.798
-202.801
-213.727
-223.315
-231.288
-237.379
-241.301
-242.927
-242.208
-239.061
-233.401
-225.228
-214.584
-201.544
-186.212
-168.709
-149.159
-127.654
-104.308
-79.0994
-52.4421
-24.1351
1.73009
44.4571
54.0243
64.2702
74.7267
84.3804
93.3793
101.344
107.754
112.548
115.927
118.051
119.118
119.332
118.835
117.727
116.051
113.822
111.029
107.64
103.617
98.9257
93.5446
87.466
80.7526
73.6112
66.3117
59.0799
52.1222
45.6499
39.8681
34.968
31.1206
28.476
27.1636
27.3278
29.1394
32.6401
38.0667
43.8118
31.7676
21.3346
9.28523
-3.7529
-16.8024
-30.7009
-44.936
-59.1188
-73.3921
-87.5431
-101.5
-115.31
-128.892
-142.215
-155.231
-167.827
-179.867
-191.177
-201.539
-210.713
-218.441
-224.487
-228.564
-230.536
-230.346
-227.901
-223.089
-215.868
-206.242
-194.254
-179.981
-163.524
-144.992
-124.482
-102.114
-77.9165
-52.3158
-25.3185
-0.633944
41.399
50.5015
60.265
70.2459
79.4734
88.0925
95.7443
101.923
106.568
109.876
111.998
113.122
113.45
113.118
112.224
110.815
108.907
106.49
103.534
99.9966
95.8401
91.031
85.5473
79.431
72.8634
66.0917
59.3239
52.752
46.579
41.0066
36.2267
32.415
29.7287
28.303
28.2805
29.8183
32.9389
37.771
42.8332
29.3576
19.4405
7.99415
-4.3737
-16.7255
-29.8637
-43.2963
-56.6511
-70.0669
-83.3436
-96.4137
-109.33
-122.018
-134.459
-146.616
-158.395
-169.678
-180.314
-190.109
-198.849
-206.293
-212.228
-216.38
-218.607
-218.845
-216.999
-212.939
-206.587
-197.913
-186.927
-173.683
-158.256
-140.744
-121.24
-99.8719
-76.7094
-52.1884
-26.4904
-2.96942
38.5236
47.1893
56.4995
66.0325
74.8568
83.1143
90.4662
96.4215
100.92
104.153
106.263
107.43
107.85
107.657
106.948
105.771
104.143
102.058
99.4862
96.3866
92.7165
88.4353
83.5094
77.9616
71.9495
65.6975
59.3952
53.2198
47.3631
42.0208
37.3838
33.6295
30.9198
29.3947
29.194
30.4622
33.2052
37.4618
41.8759
27.0946
17.6626
6.78272
-4.95667
-16.6555
-29.0837
-41.7676
-54.3514
-66.9708
-79.4351
-91.6826
-103.768
-115.626
-127.245
-138.598
-149.605
-160.167
-170.151
-179.385
-187.678
-194.809
-200.582
-204.743
-207.144
-207.722
-206.381
-202.981
-197.416
-189.625
-179.591
-167.338
-152.923
-136.425
-117.934
-97.5831
-75.475
-52.0531
-27.6391
-5.26234
35.823
44.0784
52.9607
62.0697
70.5118
78.4254
85.4908
91.2306
95.5852
98.7391
100.829
102.027
102.523
102.448
101.897
100.922
99.5392
97.746
95.5154
92.8077
89.5783
85.7813
81.3741
76.364
70.8853
65.1404
59.3005
53.5272
47.9999
42.9059
38.4319
34.7556
32.0408
30.431
30.0622
31.0672
33.4383
37.1418
40.944
24.9736
15.9987
5.65176
-5.49704
-16.5838
-28.3472
-40.3313
-52.196
-64.0735
-75.7818
-87.2652
-98.5776
-109.663
-120.516
-131.116
-141.397
-151.273
-160.631
-169.316
-177.158
-183.956
-189.528
-193.643
-196.151
-196.99
-196.069
-193.242
-188.384
-181.407
-172.269
-160.969
-147.539
-132.046
-114.573
-95.249
-74.2119
-51.9016
-28.7528
-7.49869
33.2897
41.1579
49.6358
58.3428
66.4226
74.0089
80.7991
86.3312
90.5444
93.6181
95.6822
96.9006
97.4588
97.4841
97.0703
96.2686
95.1004
93.5639
91.6358
89.2779
86.4459
83.0904
79.1629
74.657
69.6869
64.4326
59.0477
53.6777
48.4886
43.6575
39.3648
35.7856
33.0839
31.4045
30.8789
31.6295
33.6376
36.8134
40.0409
22.9893
14.445
4.60148
-5.99138
-16.5031
-27.6427
-38.9717
-50.1642
-61.3493
-72.3527
-83.125
-93.7188
-104.085
-114.223
-124.119
-133.717
-142.945
-151.702
-159.854
-167.247
-173.699
-179.04
-183.066
-185.624
-186.656
-186.08
-183.748
-179.52
-173.288
-164.988
-154.597
-142.126
-127.622
-111.162
-92.8745
-72.9167
-51.7267
-29.8214
-9.66509
30.9156
38.4182
46.513
54.8392
62.5741
69.8487
76.375
81.7062
85.7815
88.7741
90.8077
92.0387
92.6473
92.7577
92.4619
91.8118
90.8309
89.52
87.859
85.8125
83.3372
80.3828
76.896
72.8607
68.3713
63.5877
58.6459
53.6764
48.8303
44.2731
40.177
36.7125
34.0413
32.3079
31.6383
32.1456
33.8027
36.4786
39.1695
21.1356
12.9987
3.63002
-6.43748
-16.4086
-26.9617
-37.6757
-48.2399
-58.7772
-69.1233
-79.2324
-89.1575
-98.8529
-108.325
-117.562
-126.518
-135.133
-143.319
-150.956
-157.907
-164.007
-169.097
-172.999
-175.56
-176.726
-176.428
-174.518
-170.848
-165.294
-157.775
-148.246
-136.699
-123.166
-107.711
-90.4606
-71.5876
-51.5212
-30.8328
-11.7487
28.6927
35.8496
43.5815
51.5455
58.9522
65.9296
72.2026
77.3401
81.2807
84.1921
86.1921
87.4293
88.079
88.2615
88.0674
87.5491
86.7317
85.619
84.1937
82.4235
80.2674
77.6758
74.5923
70.9926
66.9546
62.6191
58.1056
53.5295
49.0272
44.7515
40.8647
37.5302
34.906
33.1342
32.3346
32.6119
33.9329
36.139
38.3319
19.4064
11.6551
2.73603
-6.83498
-16.2966
-26.298
-36.4337
-46.4083
-56.3395
-66.0714
-75.5607
-84.862
-93.9329
-102.782
-111.404
-119.759
-127.797
-135.439
-142.581
-149.099
-154.846
-159.673
-163.423
-165.95
-167.203
-167.123
-165.571
-162.39
-157.451
-150.654
-141.939
-131.279
-118.691
-104.229
-88.0118
-70.2219
-51.2751
-31.7772
-13.7366
26.6138
33.4427
40.8301
48.4491
55.5432
62.2366
68.2672
73.2174
77.0273
79.858
81.8217
83.0599
83.7427
83.987
83.8803
83.4766
82.8023
81.8633
80.6458
79.1208
77.2498
74.9844
72.2678
69.0696
65.4527
61.5406
57.4377
53.2447
49.0834
45.0931
41.425
38.2342
35.672
33.8773
32.9627
33.025
34.0278
35.7956
37.5296
17.7959
10.41
1.9172
-7.18414
-16.1646
-25.6453
-35.2371
-44.6575
-54.0204
-63.1771
-72.088
-80.8064
-89.2944
-97.5623
-105.609
-113.401
-120.895
-128.022
-134.691
-140.791
-146.188
-150.744
-154.323
-156.784
-158.084
-158.173
-156.919
-154.166
-149.779
-143.647
-135.696
-125.885
-114.213
-100.725
-85.5319
-68.8175
-50.9827
-32.6439
-15.6175
24.6713
31.1885
38.2486
45.5393
52.3349
58.7569
64.5549
69.3247
73.0075
75.7584
77.684
78.9192
79.6279
79.9248
79.8942
79.5904
79.0413
78.2545
77.2198
75.9116
74.2942
72.3216
69.9374
67.1071
63.8809
60.3663
56.6538
52.8304
49.0037
45.2995
41.8567
38.8203
36.3341
34.5314
33.5177
33.3819
34.0865
35.449
36.7629
16.2981
9.25909
1.17057
-7.4855
-16.0113
-25.0005
-34.0796
-42.979
-51.8083
-60.4262
-68.7956
-76.9693
-84.9129
-92.6378
-100.147
-107.411
-114.394
-121.035
-127.253
-132.949
-138.002
-142.286
-145.681
-148.053
-149.366
-149.58
-148.573
-146.193
-142.299
-136.777
-129.54
-120.534
-109.746
-97.2097
-83.0245
-67.3732
-50.6363
-33.4245
-17.3821
22.858
29.0792
35.8274
42.8051
49.3156
55.478
61.0524
65.649
69.2086
71.8809
73.767
74.9956
75.725
76.0663
76.1016
75.8848
75.4452
74.792
73.9181
72.8014
71.4094
69.6985
67.6143
65.1194
62.2536
59.1098
55.7656
52.296
48.7947
45.3738
42.1597
39.2863
36.8883
35.0918
33.9953
33.6798
34.1083
35.0992
36.0318
14.9072
8.19767
0.493277
-7.74045
-15.8361
-24.3606
-32.9559
-41.365
-49.6929
-57.805
-65.6676
-73.3315
-80.766
-87.9835
-94.9895
-101.76
-108.262
-114.445
-120.235
-125.544
-130.264
-134.276
-137.477
-139.743
-141.043
-141.346
-140.542
-138.483
-135.029
-130.062
-123.489
-115.246
-105.306
-93.6925
-80.4946
-65.8883
-50.2296
-34.111
-19.0219
21.1666
27.1065
33.5575
40.2361
46.4745
52.3882
57.7481
62.1778
65.6179
68.2131
70.0592
71.2787
72.0241
72.4028
72.495
72.3543
72.0103
71.4745
70.742
69.794
68.6015
67.1239
65.3095
63.1194
60.584
57.7838
54.7851
51.6511
48.4632
45.3202
42.3354
39.631
37.3315
35.5549
34.3919
33.9161
34.0924
34.7459
35.3352
13.6173
7.22117
-0.11787
-7.95057
-15.6386
-23.7233
-31.8615
-39.8082
-47.6643
-55.3014
-62.689
-69.8758
-76.8343
-83.578
-90.1135
-96.4212
-102.473
-108.224
-113.609
-118.549
-122.945
-126.691
-129.694
-131.842
-133.108
-133.471
-132.83
-131.047
-127.984
-123.522
-117.563
-110.036
-100.906
-90.1837
-77.9471
-64.3613
-49.7575
-34.6962
-20.5288
19.5907
25.2625
31.4302
37.823
43.801
49.4767
54.6309
58.8994
62.2241
64.744
66.5496
67.7574
68.5146
68.9255
69.0668
68.9924
68.7323
68.2989
67.6906
66.8913
65.8752
64.6053
63.0324
61.1178
58.8842
56.4005
53.7234
50.9059
48.0173
45.144
42.3864
39.8546
37.6622
35.9177
34.7046
34.0886
34.0377
34.388
34.6711
12.4228
6.32515
-0.666213
-8.11774
-15.4191
-23.0876
-30.7934
-38.3039
-45.7152
-52.9059
-59.8475
-66.5873
-73.1002
-79.4007
-85.4968
-91.3715
-97.0012
-102.347
-107.349
-111.937
-116.024
-119.51
-122.314
-124.335
-125.552
-125.951
-125.441
-123.893
-121.175
-117.17
-111.778
-104.923
-96.5601
-86.6934
-75.3872
-62.7937
-49.215
-35.1744
-21.8972
18.1238
23.5401
29.4371
35.557
41.2857
46.7334
51.6895
55.803
59.0161
61.4622
63.2271
64.4216
65.1872
65.625
65.8091
65.7925
65.6055
65.2622
64.7627
64.0942
63.2338
62.1479
60.7907
59.1243
57.165
54.9717
52.592
50.0704
47.4654
44.8514
42.3165
39.9586
37.8798
36.1786
34.9313
34.1956
33.9433
34.0244
34.0373
11.3185
5.50505
-1.15511
-8.24413
-15.1786
-22.4523
-29.7493
-36.8477
-43.8401
-50.6106
-57.1333
-63.4542
-69.55
-75.4356
-81.1203
-86.5901
-91.8243
-96.7885
-101.43
-105.686
-109.476
-112.712
-115.319
-117.21
-118.365
-118.779
-118.373
-117.026
-114.613
-111.02
-106.148
-99.9189
-92.2818
-83.2316
-72.8205
-61.1858
-48.5998
-35.5418
-23.1225
16.7594
21.9319
27.5706
33.4291
38.9193
44.1482
48.9142
52.8785
55.9835
58.3574
60.082
61.2614
62.0328
62.4933
62.7143
62.7479
62.6249
62.3605
61.9562
61.4024
60.679
59.756
58.591
57.1471
55.4361
53.5075
51.4015
49.1547
46.8163
44.4495
42.1307
39.9457
37.9851
36.3371
35.0707
34.2358
33.8083
33.6534
33.4306
10.2989
4.7566
-1.588
-8.33194
-14.9179
-21.8171
-28.7266
-35.4357
-42.0331
-48.4079
-54.5371
-60.4648
-66.1697
-71.6674
-76.9676
-82.0584
-86.9223
-91.529
-95.8317
-99.7733
-103.282
-106.277
-108.692
-110.45
-111.536
-111.951
-111.626
-110.449
-108.304
-105.082
-100.687
-95.0384
-88.0831
-79.8077
-70.2533
-59.5396
-47.9099
-35.795
-24.2016
15.4917
20.4316
25.8231
31.4317
36.6933
41.7123
46.2954
50.1157
53.1165
55.4202
57.1045
58.2679
59.0423
59.5214
59.7743
59.8516
59.7846
59.5889
59.2682
58.8148
58.2118
57.4324
56.4381
55.1934
53.7058
52.0175
50.1619
48.1688
46.0791
43.946
41.8347
39.8196
37.9801
36.394
35.1225
34.2084
33.6315
33.273
32.8474
9.3592
4.0755
-1.96827
-8.38365
-14.6382
-21.1822
-27.7246
-34.0656
-40.2897
-46.2919
-52.0509
-57.6096
-62.9481
-68.0824
-73.0229
-77.7596
-82.2771
-86.5491
-90.5334
-94.1794
-97.4213
-100.187
-102.415
-104.042
-105.055
-105.459
-105.195
-104.163
-102.253
-99.3642
-95.4038
-90.2925
-83.9747
-76.4311
-67.691
-57.858
-47.1443
-35.9325
-25.1328
14.3151
19.0327
24.1878
29.557
34.5996
39.4169
43.8242
47.5059
50.4056
52.6408
54.2852
55.4316
56.207
56.7015
56.9814
57.0969
57.0785
56.9428
56.695
56.3295
55.8321
55.1792
54.3358
53.2686
51.9815
50.5102
48.8824
47.1221
45.2628
43.3487
41.4351
39.5855
37.8681
36.3507
35.0871
34.1132
33.4124
32.8811
32.2839
8.49442
3.45765
-2.29919
-8.4014
-14.3411
-20.5475
-26.742
-32.7345
-38.6059
-44.257
-49.668
-54.8801
-59.8752
-64.6694
-69.2735
-73.6787
-77.8726
-81.8314
-85.5175
-88.8852
-91.8759
-94.4231
-96.4733
-97.9707
-98.907
-99.2924
-99.0757
-98.1655
-96.4625
-93.8724
-90.3075
-85.6911
-79.9666
-73.1098
-65.1404
-56.1444
-46.3042
-35.9542
-25.9157
13.2238
17.7292
22.6578
27.7977
32.6302
37.2541
41.4921
45.0401
47.842
50.0107
51.6153
52.7439
53.5183
54.0251
54.3283
54.4766
54.5006
54.4171
54.2328
53.944
53.5391
52.9971
52.2868
51.3773
50.2696
48.9934
47.5717
46.0236
44.3764
42.6663
40.9393
39.2489
37.6532
36.2101
34.9659
33.9506
33.15
32.4756
31.7358
7.69997
2.89884
-2.58398
-8.38769
-14.0279
-19.9133
-25.778
-31.4406
-36.9791
-42.299
-47.3824
-52.2689
-56.9419
-61.4178
-65.707
-69.8027
-73.694
-77.3601
-80.7673
-83.8742
-86.6283
-88.9697
-90.8501
-92.2226
-93.0821
-93.4426
-93.2606
-92.4542
-90.9329
-88.6102
-85.4041
-81.242
-76.0674
-69.8523
-62.6076
-54.4026
-45.3914
-35.8615
-26.552
12.2129
16.5151
21.2271
26.147
30.7781
35.2159
39.2911
42.7101
45.4175
47.5212
49.0865
50.1966
50.9681
51.4847
51.8074
51.984
52.0447
52.0066
51.8775
51.6555
51.3311
50.8863
50.2933
49.5233
48.5752
47.4736
46.2375
44.882
43.4287
41.9071
40.3549
38.8166
37.3407
35.9758
34.7613
33.7214
32.8441
32.0541
31.1991
6.97137
2.39541
-2.82594
-8.34497
-13.7001
-19.2806
-24.832
-30.1823
-35.406
-40.4136
-45.1884
-49.769
-54.1401
-58.3177
-62.3127
-66.1191
-69.7281
-73.1209
-76.2674
-79.1306
-81.6628
-83.8107
-85.5307
-86.7835
-87.5673
-87.8989
-87.7423
-87.0239
-85.6625
-83.5791
-80.6981
-76.9513
-72.284
-66.6655
-60.0986
-52.6376
-44.4094
-35.657
-27.044
11.2772
15.3852
19.8897
24.5987
29.0364
33.2955
37.2138
40.5082
43.1241
45.1644
46.6908
47.7816
48.5488
49.0727
49.4117
49.6126
49.7049
49.706
49.6247
49.4607
49.2063
48.8465
48.3563
47.7093
46.9027
45.9569
44.8872
43.7053
42.4283
41.0797
39.6901
38.2957
36.9364
35.6524
34.4763
33.4271
32.4944
31.6146
30.6694
6.30435
1.94354
-3.02804
-8.27559
-13.3595
-18.65
-23.904
-28.9587
-33.8845
-38.5973
-43.0819
-47.375
-51.4627
-55.361
-59.0808
-62.617
-65.9624
-69.1004
-72.0039
-74.6395
-76.9646
-78.9311
-80.5003
-81.6394
-82.3499
-82.6508
-82.5122
-81.8688
-80.6482
-78.7786
-76.1915
-72.8236
-68.6223
-63.5556
-57.6197
-50.8546
-43.3624
-35.3448
-27.3953
10.4122
14.3342
18.64
23.1465
27.3985
31.4857
35.2528
38.427
40.9543
42.9327
44.4205
45.4916
46.253
46.7819
47.1344
47.3557
47.4751
47.5101
47.4701
47.3561
47.1626
46.8765
46.4761
45.9374
45.256
44.4483
43.527
42.5009
41.3832
40.1925
38.953
37.6938
36.4471
35.2452
34.1147
33.0698
32.1012
31.1552
30.1426
5.69481
1.53972
-3.19329
-8.18185
-13.0073
-18.0222
-22.9938
-27.7683
-32.4128
-36.8473
-41.0583
-45.0812
-48.9032
-52.5399
-56.0024
-59.2866
-62.3861
-65.2864
-67.9636
-70.3874
-72.5194
-74.3164
-75.7448
-76.7771
-77.4175
-77.6869
-77.5608
-76.9816
-75.885
-74.2067
-71.8849
-68.8614
-65.0868
-60.5283
-55.1766
-49.0594
-42.2557
-34.9298
-27.6112
9.61324
13.3573
17.4723
21.7848
25.8584
29.7802
33.4016
36.4596
38.9009
40.8189
42.2685
43.3192
44.0736
44.6055
44.9688
45.2072
45.3497
45.4137
45.4092
45.3383
45.1972
44.9751
44.653
44.209
43.6378
42.9522
42.1627
41.2757
40.3013
39.2537
38.1519
37.0188
35.8797
34.7601
33.6809
32.6522
31.665
30.6741
29.615
5.13896
1.18045
-3.32447
-8.06604
-12.6452
-17.398
-22.1017
-26.6106
-30.9887
-35.1606
-39.114
-42.8829
-46.4556
-49.8475
-53.0694
-56.1183
-58.9889
-61.6683
-64.1348
-66.3616
-68.314
-69.9537
-71.2507
-72.1832
-72.7573
-72.9954
-72.878
-72.3542
-71.3671
-69.8599
-67.7772
-65.0662
-61.6806
-57.5881
-52.7749
-47.2576
-41.0952
-34.4184
-27.6977
8.876
12.4496
16.3818
20.508
24.4102
28.1728
31.6537
34.5993
36.9571
38.8162
40.228
41.2577
42.0038
42.5369
42.9085
43.1612
43.3231
43.4117
43.4374
43.4036
43.3076
43.1406
42.8864
42.5251
42.0505
41.4725
40.7994
40.0361
39.1898
38.2713
37.2951
36.2787
35.2417
34.2035
33.1799
32.1774
31.187
30.1701
29.0832
4.63305
0.862571
-3.42446
-7.93023
-12.275
-16.7783
-21.2275
-25.4846
-29.6109
-33.535
-37.2457
-40.7757
-44.1147
-47.2773
-50.2746
-53.1039
-55.7612
-58.235
-60.5061
-62.55
-64.3359
-65.8298
-67.0052
-67.8451
-68.3572
-68.5651
-68.4534
-67.9778
-67.0878
-65.7336
-63.8661
-61.4378
-58.4058
-54.7388
-50.4195
-45.4555
-39.8879
-33.8176
-27.6617
8.19649
11.6069
15.3638
19.311
23.0483
26.6577
30.003
32.84
35.1167
36.918
38.2923
39.3007
40.0373
40.5698
40.9476
41.2117
41.3898
41.4991
41.5505
41.5482
41.4908
41.3713
41.1758
40.8863
40.496
40.0123
39.4418
38.7879
38.0556
37.2529
36.3906
35.4816
34.5407
33.5821
32.6171
31.649
30.6684
29.6422
28.5438
4.17359
0.582965
-3.49586
-7.77655
-11.8981
-16.1639
-20.3714
-24.3899
-28.278
-31.968
-35.4502
-38.7557
-41.8755
-44.8236
-47.6111
-50.2357
-52.6946
-54.9774
-57.067
-58.9415
-60.5736
-61.9326
-62.9957
-63.75
-64.2047
-64.3841
-64.2764
-63.8428
-63.0392
-61.8218
-60.1479
-57.9747
-55.2633
-51.9832
-48.1152
-43.659
-38.6407
-33.1351
-27.5109
7.57083
10.8248
14.4136
18.1888
21.7678
25.2295
28.4439
31.1757
33.3735
35.1183
36.4554
37.442
38.168
38.6984
39.0802
39.3535
39.5449
39.6714
39.7443
39.7687
39.7442
39.6652
39.52
39.2927
38.9757
38.5745
38.0938
37.5362
36.905
36.2057
35.446
34.6355
33.7844
32.9028
31.9981
31.0708
30.1112
29.09