/*--------------------------------*- C++ -*----------------------------------*\
  =========                 |
  \\      /  F ield         | OpenFOAM: The Open Source CFD Toolbox
   \\    /   O peration     | Website:  https://openfoam.org
    \\  /    A nd           | Version:  7
     \\/     M anipulation  |
\*---------------------------------------------------------------------------*/
FoamFile
{
    version     2.0;
    format      ascii;
    class       surfaceScalarField;
    location    "200";
    object      phi;
}
// * * * * * * * * * * * * * * * * * * * * * * * * * * * * * * * * * * * * * //

dimensions      [0 3 -1 0 0 0 0];

internalField   nonuniform List<scalar> 
21254
(
-0.241001
0.260523
-0.0195221
0.282493
-0.0219701
0.301312
-0.0188191
0.318084
-0.0167714
0.333948
-0.0158645
0.346584
-0.0126357
0.356537
-0.00995301
0.364614
-0.00807657
0.369894
-0.00528016
0.373449
-0.00355572
0.375533
-0.00208334
0.375977
-0.00044429
0.375146
0.000830875
0.372994
0.00215186
0.369459
0.00353507
0.36483
0.00462893
0.358931
0.00589951
0.351869
0.00706228
0.34351
0.00835871
0.334098
0.00941178
0.323319
0.0107787
0.311757
0.0115628
0.299684
0.0120728
0.288411
0.0112729
0.279137
0.00927411
0.271176
0.00796073
0.263401
0.00777532
0.255495
0.00790616
0.247124
0.00837097
0.2382
0.00892335
0.228699
0.0095016
0.21861
0.0100885
0.20787
0.0107407
0.196238
0.0116317
0.183188
0.0130504
0.167661
0.0155274
0.147302
0.0203587
0.116706
0.0305968
0.0951326
0.0215864
-0.217905
-0.0230964
-0.19401
-0.0238945
-0.164569
-0.0294409
-0.132207
-0.0323627
-0.098035
-0.0341715
-0.0626519
-0.0353831
-0.0276373
-0.0350147
0.00489223
-0.0325295
0.0343676
-0.0294753
0.0604859
-0.0261183
0.0828218
-0.0223359
0.101792
-0.0189705
0.117751
-0.0159589
0.131066
-0.0133151
0.142457
-0.0113909
0.152257
-0.00979996
0.160948
-0.00869062
0.168767
-0.00781893
0.176027
-0.00726045
0.182855
-0.00682746
0.189421
-0.00656662
0.195719
-0.00629774
0.20168
-0.00596108
0.206678
-0.00499821
0.210527
-0.0038484
0.213503
-0.00297684
0.215606
-0.00210243
0.216951
-0.00134517
0.217551
-0.000600375
0.21735
0.000201733
0.216252
0.00109749
0.214394
0.00185748
0.211902
0.0024928
0.208836
0.0030657
0.205056
0.00377935
0.200138
0.00491823
0.192903
0.00723553
0.178014
0.0148882
0.155395
0.0226186
-0.21994
0.241507
-0.0410898
0.263559
-0.0440213
0.286573
-0.0418331
0.308033
-0.0382322
0.328963
-0.0367941
0.348345
-0.0320174
0.365779
-0.0273871
0.381526
-0.023824
0.39518
-0.0189343
0.406802
-0.0151769
0.416411
-0.0116923
0.424141
-0.00817504
0.430304
-0.00533186
0.435062
-0.00260611
0.4383
0.000297009
0.439701
0.003228
0.439187
0.00641319
0.436883
0.0093662
0.432288
0.0129542
0.425694
0.0160055
0.416705
0.0197684
0.405616
0.0226516
0.392426
0.0252629
0.377777
0.0259216
0.362939
0.0241123
0.348358
0.0225417
0.334131
0.0220018
0.320481
0.0215562
0.307229
0.0216234
0.29423
0.0219226
0.281277
0.0224543
0.268212
0.0231535
0.254786
0.0241671
0.240786
0.0256316
0.225817
0.0280193
0.208885
0.0324602
0.188715
0.0405295
0.156431
0.062881
0.113067
0.0649585
-0.19789
-0.045146
-0.174263
-0.0475215
-0.146596
-0.0571079
-0.11732
-0.0616383
-0.0862193
-0.0652727
-0.0537261
-0.0678763
-0.0213688
-0.0673719
0.00960322
-0.0635015
0.038053
-0.0579251
0.0633852
-0.0514505
0.0855017
-0.0444524
0.104705
-0.0381738
0.121435
-0.0326883
0.135916
-0.0277967
0.14859
-0.0240641
0.159755
-0.0209658
0.169705
-0.0186403
0.178747
-0.0168609
0.187136
-0.0156492
0.194985
-0.0146762
0.202453
-0.0140354
0.209613
-0.0134573
0.21639
-0.0127384
0.222326
-0.0109343
0.227146
-0.00866822
0.231054
-0.00688455
0.234046
-0.00509441
0.236173
-0.00347267
0.237484
-0.00191167
0.238128
-0.000441533
0.238202
0.00102345
0.237647
0.0024121
0.236335
0.00380483
0.234222
0.00517871
0.231251
0.00674956
0.227179
0.00899006
0.22199
0.0124251
0.211068
0.0258092
0.19003
0.0436573
-0.21342
0.235162
-0.0628317
0.257059
-0.0659184
0.280686
-0.0654601
0.302288
-0.0598341
0.322825
-0.0573307
0.342481
-0.0516739
0.359965
-0.0448709
0.375688
-0.0395471
0.389207
-0.0324532
0.400808
-0.0267781
0.410522
-0.0214059
0.418513
-0.0161656
0.424608
-0.0114276
0.429286
-0.00728423
0.432294
-0.00271023
0.434372
0.00114992
0.43521
0.00557527
0.435156
0.00941967
0.433882
0.0142289
0.431326
0.0185611
0.427374
0.0237203
0.421856
0.0281701
0.414744
0.0323746
0.406134
0.0345312
0.396546
0.0337004
0.386042
0.0330464
0.374511
0.0335328
0.362099
0.0339679
0.348979
0.0347435
0.335248
0.0356538
0.321053
0.0366494
0.306425
0.0377807
0.291309
0.0392833
0.275531
0.0414098
0.258703
0.0448477
0.23983
0.051333
0.217735
0.0626252
0.184748
0.0958683
0.137145
0.112566
-0.191537
-0.0670289
-0.167548
-0.0715114
-0.138839
-0.0858161
-0.108955
-0.0915227
-0.0777163
-0.0965113
-0.0452762
-0.100316
-0.0132481
-0.0994
0.0166994
-0.093449
0.044231
-0.0854566
0.0691801
-0.0763997
0.0912459
-0.0665182
0.110588
-0.0575161
0.127564
-0.0496643
0.142448
-0.04268
0.155549
-0.0371661
0.167206
-0.0326228
0.177685
-0.0291184
0.18725
-0.0264267
0.196112
-0.0245111
0.204435
-0.0229989
0.212403
-0.0220039
0.220032
-0.0210856
0.227228
-0.0199347
0.233691
-0.0173974
0.239134
-0.0141115
0.24366
-0.0114102
0.247326
-0.00876018
0.250163
-0.00631029
0.252237
-0.00398554
0.253541
-0.00174532
0.254146
0.000418427
0.254046
0.00251209
0.253264
0.00458722
0.251726
0.00671609
0.24933
0.00914601
0.245689
0.0126302
0.240379
0.0177357
0.229699
0.0364885
0.20971
0.0636466
-0.205864
0.228614
-0.0855819
0.251422
-0.0887263
0.276494
-0.0905327
0.299373
-0.0827129
0.321539
-0.0794968
0.342776
-0.0729103
0.362263
-0.0643587
0.379817
-0.0571004
0.39565
-0.0482866
0.40954
-0.0406675
0.421602
-0.033468
0.431834
-0.0263979
0.440268
-0.0198617
0.446941
-0.0139569
0.452173
-0.0079429
0.455596
-0.00227271
0.457353
0.00381777
0.457202
0.00957077
0.455468
0.015963
0.452029
0.0220009
0.44703
0.0287185
0.440723
0.0344771
0.433236
0.0398615
0.425076
0.0426918
0.416673
0.0421033
0.408084
0.0416355
0.398937
0.0426799
0.389082
0.0438228
0.378339
0.0454866
0.366529
0.0474635
0.353648
0.0495309
0.339683
0.0517457
0.324636
0.0543304
0.308383
0.0576624
0.290672
0.0625594
0.270556
0.0714487
0.246784
0.0863983
0.212495
0.130158
0.16422
0.160846
-0.183395
-0.0894978
-0.159292
-0.0956144
-0.130046
-0.115062
-0.100016
-0.121553
-0.0687
-0.127827
-0.0361448
-0.132872
-0.00418794
-0.131357
0.0253904
-0.123027
0.0524188
-0.112485
0.076971
-0.100952
0.0987072
-0.0882545
0.117867
-0.0766759
0.13486
-0.066657
0.149924
-0.0577447
0.163378
-0.0506194
0.175444
-0.0446894
0.186414
-0.0400881
0.196465
-0.0364782
0.205829
-0.033875
0.214645
-0.0318143
0.223024
-0.0303829
0.231032
-0.0290941
0.238611
-0.027513
0.24544
-0.0242269
0.251279
-0.0199505
0.256188
-0.0163191
0.260211
-0.0127835
0.263398
-0.00949673
0.265779
-0.00636743
0.267414
-0.00337963
0.268329
-0.000496417
0.268549
0.00229147
0.268074
0.00506231
0.266888
0.0079021
0.264871
0.0111629
0.261643
0.0158574
0.256614
0.0227652
0.246437
0.0466649
0.226797
0.0832865
-0.201772
0.225341
-0.10915
0.249035
-0.11242
0.275526
-0.117024
0.299177
-0.106363
0.322372
-0.102692
0.344717
-0.0952553
0.365111
-0.0847529
0.383657
-0.0756465
0.400656
-0.065285
0.415449
-0.0554609
0.428431
-0.0464495
0.439538
-0.0375046
0.449047
-0.0293712
0.456626
-0.0215358
0.462454
-0.0137712
0.466533
-0.00635123
0.469018
0.00133258
0.469949
0.00863937
0.469081
0.0168312
0.466677
0.0244051
0.462591
0.0328048
0.456961
0.0401066
0.450025
0.0467978
0.442179
0.0505379
0.433998
0.0502839
0.42569
0.0499435
0.417109
0.0512611
0.408191
0.0527409
0.398794
0.0548836
0.38875
0.0575077
0.37781
0.060471
0.365745
0.0638104
0.35234
0.0677356
0.337305
0.0726973
0.32023
0.0796347
0.300235
0.0914436
0.275888
0.110745
0.240887
0.165159
0.192516
0.20922
-0.178261
-0.113009
-0.153453
-0.120423
-0.122967
-0.145548
-0.0921087
-0.152411
-0.0600855
-0.15985
-0.026913
-0.166044
0.00546478
-0.163735
0.035096
-0.152659
0.0619497
-0.139339
0.0862513
-0.125253
0.107702
-0.109705
0.126641
-0.0956146
0.143561
-0.083577
0.158672
-0.072856
0.172288
-0.0642349
0.184669
-0.0570708
0.195992
-0.0514112
0.20644
-0.0469261
0.216206
-0.043641
0.225428
-0.0410364
0.2342
-0.0391544
0.242561
-0.0374553
0.250477
-0.0354289
0.257673
-0.0314229
0.263889
-0.0261663
0.269156
-0.0215865
0.273507
-0.0171351
0.276995
-0.0129846
0.279648
-0.00901965
0.281497
-0.00522888
0.282583
-0.00158302
0.282961
0.00191391
0.282623
0.00540018
0.281532
0.00899346
0.279634
0.0130602
0.27654
0.0189515
0.271644
0.0276611
0.262014
0.0562948
0.243038
0.102263
-0.198474
0.22306
-0.133736
0.248083
-0.137443
0.275954
-0.144896
0.300816
-0.131224
0.325031
-0.126908
0.348751
-0.118975
0.370115
-0.106117
0.389944
-0.0954763
0.407929
-0.0832693
0.423952
-0.0714839
0.438242
-0.0607403
0.450611
-0.0498735
0.461281
-0.0400405
0.470227
-0.0304819
0.477309
-0.0208532
0.482842
-0.0118845
0.486447
-0.00227229
0.488218
0.00686897
0.488263
0.0167858
0.486407
0.0262612
0.482701
0.0365108
0.477369
0.0454388
0.470563
0.0536031
0.462707
0.0583947
0.454314
0.0586765
0.44565
0.058608
0.436668
0.0602425
0.427385
0.0620246
0.417803
0.0644654
0.407851
0.0674591
0.397459
0.070864
0.386392
0.0748767
0.374382
0.079746
0.360997
0.0860822
0.345622
0.0950104
0.327068
0.109997
0.303717
0.134097
0.269345
0.199531
0.221498
0.257071
-0.173996
-0.137488
-0.14837
-0.146048
-0.116576
-0.177343
-0.0845775
-0.184409
-0.0515561
-0.192871
-0.0174554
-0.200145
0.0156315
-0.196822
0.0456064
-0.182633
0.072557
-0.166289
0.0967876
-0.149484
0.118061
-0.130979
0.136784
-0.114337
0.153552
-0.100345
0.168621
-0.0879256
0.182298
-0.0779111
0.194837
-0.0696101
0.2064
-0.0629739
0.217177
-0.0577034
0.227295
-0.0537589
0.23688
-0.050622
0.246025
-0.0482986
0.254749
-0.0461792
0.262999
-0.0436789
0.270589
-0.0390135
0.277193
-0.0327697
0.2828
-0.0271937
0.287495
-0.0218305
0.291274
-0.0167634
0.294184
-0.0119293
0.296254
-0.00729902
0.297522
-0.00285186
0.298016
0.00142042
0.29774
0.00567584
0.296711
0.0100227
0.294779
0.0149924
0.29165
0.0220795
0.286636
0.032675
0.277293
0.065638
0.25902
0.120536
-0.196476
0.222392
-0.159652
0.248453
-0.163503
0.277895
-0.174339
0.304036
-0.157365
0.329511
-0.152383
0.35431
-0.143773
0.376849
-0.128656
0.397532
-0.116159
0.416571
-0.102307
0.433537
-0.0884505
0.448663
-0.0758664
0.462089
-0.0632993
0.473679
-0.0516307
0.483497
-0.0402997
0.491604
-0.0289608
0.497821
-0.0181015
0.502302
-0.00675296
0.504949
0.00422218
0.505785
0.0159494
0.504747
0.0272991
0.501876
0.0393827
0.497232
0.0500819
0.491143
0.0596923
0.483792
0.065746
0.475688
0.0667803
0.46707
0.0672263
0.457943
0.0693688
0.448343
0.071625
0.438354
0.0744545
0.427944
0.0778692
0.417121
0.0816868
0.405843
0.0861546
0.39398
0.091609
0.381199
0.0988635
0.366992
0.109217
0.350152
0.126838
0.328843
0.155406
0.296783
0.231592
0.250483
0.303373
-0.170789
-0.163175
-0.144059
-0.172779
-0.110816
-0.210585
-0.0775098
-0.217716
-0.0432888
-0.227092
-0.00794706
-0.235486
0.0261107
-0.230879
0.0567422
-0.213265
0.0840404
-0.193587
0.108425
-0.173869
0.129628
-0.152182
0.1482
-0.132909
0.164819
-0.116964
0.179782
-0.102888
0.193424
-0.0915533
0.20603
-0.0822163
0.217768
-0.0747114
0.228777
-0.0687129
0.239191
-0.0641721
0.249099
-0.0605305
0.258573
-0.0577723
0.267625
-0.0552315
0.276232
-0.0522857
0.284148
-0.0469295
0.291144
-0.0397657
0.297142
-0.0331918
0.302163
-0.0268512
0.306255
-0.0208561
0.309422
-0.0150957
0.311723
-0.00960064
0.31316
-0.00428853
0.313789
0.000791343
0.313617
0.00584747
0.312592
0.0110477
0.310659
0.0169252
0.307437
0.0253016
0.302237
0.0378751
0.292973
0.0749019
0.275322
0.138187
-0.195204
0.222456
-0.186904
0.249952
-0.190999
0.28108
-0.205466
0.308421
-0.184706
0.335189
-0.179151
0.361241
-0.169825
0.384801
-0.152216
0.4067
-0.138058
0.426554
-0.122162
0.444458
-0.106354
0.460637
-0.0920454
0.474926
-0.0775886
0.4874
-0.0641046
0.498176
-0.0510757
0.507186
-0.0379707
0.514385
-0.0253001
0.5198
-0.0121678
0.523359
0.00066277
0.524976
0.0143328
0.524653
0.0276213
0.522477
0.0415587
0.51845
0.0541098
0.512811
0.0653306
0.505917
0.0726408
0.49809
0.0746066
0.489592
0.0757249
0.480478
0.0784828
0.470752
0.0813512
0.460459
0.0847471
0.449663
0.0886649
0.438315
0.0930347
0.426464
0.0980061
0.414018
0.104055
0.400879
0.112003
0.386656
0.12344
0.370504
0.14299
0.350911
0.175
0.322068
0.260435
0.278521
0.346923
-0.168287
-0.190092
-0.140399
-0.200667
-0.105441
-0.245543
-0.0706151
-0.252542
-0.0349684
-0.262739
0.0017435
-0.272198
0.0370228
-0.266159
0.068523
-0.244765
0.0963587
-0.221423
0.121037
-0.198547
0.142319
-0.173464
0.160812
-0.151402
0.177304
-0.133456
0.192139
-0.117723
0.205699
-0.105113
0.218327
-0.0948439
0.230137
-0.0865221
0.24131
-0.0798857
0.251942
-0.0748033
0.262122
-0.0707109
0.27188
-0.0675308
0.281259
-0.0646106
0.290195
-0.0612208
0.298479
-0.0552136
0.305844
-0.0471314
0.312209
-0.0395567
0.317584
-0.0322264
0.321998
-0.0252699
0.325443
-0.0185411
0.327963
-0.0121206
0.329603
-0.00592865
0.330366
2.86933e-05
0.330282
0.00593125
0.329306
0.0120238
0.327325
0.0189064
0.32401
0.0286159
0.318639
0.0432466
0.309372
0.0841679
0.292331
0.155228
-0.194779
0.223399
-0.215523
0.252343
-0.219943
0.28517
-0.238294
0.313904
-0.21344
0.342145
-0.207391
0.369557
-0.197237
0.394341
-0.177
0.417126
-0.160844
0.438098
-0.143134
0.456839
-0.125095
0.473729
-0.108935
0.488838
-0.0926981
0.50218
-0.0774462
0.513762
-0.0626578
0.523586
-0.0477949
0.531674
-0.0333879
0.537891
-0.0183844
0.542191
-0.0036378
0.544564
0.0119599
0.544963
0.0272226
0.543468
0.0430539
0.540119
0.0574589
0.535084
0.0703652
0.528678
0.0790471
0.521231
0.0820534
0.51295
0.0840054
0.50389
0.0875436
0.494122
0.091119
0.483708
0.0951606
0.47264
0.0997327
0.460929
0.104746
0.448576
0.110359
0.435529
0.117103
0.42167
0.125861
0.406781
0.138329
0.390223
0.159548
0.371111
0.194112
0.345076
0.286471
0.304728
0.387271
-0.166371
-0.218501
-0.137128
-0.229909
-0.100395
-0.282276
-0.0640095
-0.288927
-0.0267087
-0.30004
0.0115794
-0.310486
0.0483229
-0.302902
0.080874
-0.277316
0.109433
-0.249982
0.134581
-0.223695
0.156062
-0.194945
0.174583
-0.169923
0.191001
-0.149874
0.205721
-0.132444
0.21918
-0.118573
0.231738
-0.107402
0.243582
-0.0983655
0.254844
-0.0911479
0.26563
-0.0855893
0.276028
-0.0811087
0.28607
-0.0775729
0.29572
-0.0742609
0.304962
-0.0704628
0.313599
-0.0638501
0.321354
-0.0548871
0.328073
-0.0462749
0.333805
-0.0379586
0.338521
-0.0299861
0.342267
-0.0222876
0.345041
-0.0148942
0.346871
-0.00775833
0.347792
-0.000892916
0.347795
0.0059291
0.346862
0.012956
0.34488
0.0208889
0.34149
0.0320056
0.33593
0.0488064
0.326682
0.0934167
0.310242
0.171668
-0.194797
0.225031
-0.245757
0.255525
-0.250437
0.290248
-0.273017
0.32044
-0.243633
0.34997
-0.236921
0.378859
-0.226126
0.404816
-0.202958
0.428745
-0.184773
0.450706
-0.165094
0.470328
-0.144717
0.488077
-0.126683
0.504066
-0.108687
0.518116
-0.0914965
0.530419
-0.0749607
0.541109
-0.0584849
0.549904
-0.0421833
0.556901
-0.0253807
0.561957
-0.00869409
0.565129
0.0087875
0.566316
0.0260356
0.565436
0.0439346
0.562738
0.0601569
0.558284
0.0748192
0.552382
0.0849485
0.54529
0.0891463
0.537179
0.0921159
0.528226
0.0964967
0.518476
0.10087
0.507923
0.105713
0.496676
0.11098
0.484686
0.116737
0.471928
0.123117
0.458364
0.130667
0.443873
0.140352
0.428229
0.153973
0.410815
0.176962
0.391097
0.213831
0.366561
0.311008
0.328988
0.424846
-0.165018
-0.24828
-0.134309
-0.260618
-0.0956151
-0.32097
-0.0573691
-0.327173
-0.0183865
-0.339023
0.0217382
-0.350611
0.0600122
-0.341176
0.0938045
-0.311108
0.123258
-0.279435
0.149045
-0.249483
0.170851
-0.216751
0.18947
-0.188542
0.205882
-0.166286
0.220513
-0.147075
0.233863
-0.131922
0.246344
-0.119883
0.258152
-0.110173
0.269442
-0.102437
0.280352
-0.0964996
0.290915
-0.091672
0.301141
-0.0877985
0.311068
-0.084188
0.320615
-0.0800102
0.329583
-0.0728173
0.337687
-0.0629912
0.344789
-0.0533769
0.350854
-0.0440233
0.355914
-0.0350464
0.359945
-0.0263184
0.362971
-0.0179209
0.365027
-0.00981452
0.366093
-0.00195872
0.366216
0.00580658
0.36534
0.0138313
0.363338
0.0228906
0.35986
0.0354837
0.354179
0.0544871
0.34497
0.102625
0.329108
0.18753
-0.195438
0.227242
-0.277561
0.259315
-0.282509
0.295969
-0.309671
0.327845
-0.275509
0.358993
-0.268069
0.389357
-0.25649
0.416461
-0.230063
0.441623
-0.209934
0.464622
-0.188093
0.485188
-0.165284
0.50373
-0.145225
0.520356
-0.125313
0.535208
-0.106348
0.548357
-0.0881102
0.559638
-0.0697655
0.56921
-0.0517559
0.576927
-0.0330979
0.582773
-0.0145396
0.586606
0.0049545
0.588463
0.0241781
0.588302
0.0440961
0.586183
0.0622761
0.582309
0.0786932
0.576918
0.0903391
0.570226
0.0958383
0.562421
0.0999211
0.553588
0.105329
0.543809
0.110649
0.533209
0.116313
0.521746
0.122443
0.509485
0.128998
0.496397
0.136204
0.482401
0.144663
0.46736
0.155393
0.451016
0.170317
0.432796
0.195182
0.412021
0.234606
0.387803
0.335226
0.352067
0.460583
-0.163983
-0.279735
-0.131767
-0.292833
-0.0909969
-0.36174
-0.0508195
-0.367351
-0.00987182
-0.37997
0.0321196
-0.392603
0.0721579
-0.381215
0.107341
-0.346292
0.137862
-0.309955
0.164364
-0.275985
0.186635
-0.239022
0.205468
-0.207375
0.221948
-0.182766
0.236524
-0.16165
0.249777
-0.145176
0.262159
-0.132265
0.273902
-0.121916
0.285195
-0.11373
0.296133
-0.107438
0.306808
-0.102347
0.317238
-0.0982278
0.327388
-0.094338
0.337192
-0.0898145
0.346489
-0.0821137
0.354944
-0.0714466
0.362398
-0.0608312
0.36883
-0.0504556
0.374213
-0.0404294
0.37856
-0.0306651
0.381849
-0.0212096
0.384105
-0.012071
0.385366
-0.00321927
0.385596
0.00557628
0.384786
0.0146418
0.382774
0.024902
0.379246
0.0390124
0.373429
0.0603044
0.364277
0.111776
0.349051
0.202757
-0.196398
0.230003
-0.311167
0.263837
-0.316343
0.30253
-0.348365
0.336009
-0.308988
0.368772
-0.300831
0.400722
-0.28844
0.429337
-0.258679
0.455635
-0.236232
0.47971
-0.212168
0.501182
-0.186756
0.520625
-0.164668
0.538118
-0.142805
0.553587
-0.121818
0.56736
-0.101883
0.579415
-0.0818205
0.589675
-0.062016
0.598052
-0.041475
0.604531
-0.0210185
0.609045
0.000440707
0.611592
0.0216306
0.612107
0.0435816
0.610651
0.0637321
0.60736
0.0819844
0.602467
0.0952318
0.596164
0.102142
0.588634
0.107451
0.579954
0.114009
0.570247
0.120355
0.559554
0.127007
0.547945
0.134051
0.535424
0.14152
0.52198
0.149648
0.507584
0.15906
0.492031
0.170946
0.475072
0.187276
0.456147
0.214108
0.434346
0.256407
0.409699
0.359874
0.375061
0.495222
-0.163305
-0.312828
-0.12936
-0.326779
-0.0864567
-0.404643
-0.0441878
-0.40962
-0.00119608
-0.422962
0.0428459
-0.436645
0.0848263
-0.423195
0.121508
-0.382973
0.1532
-0.341648
0.180605
-0.30339
0.203452
-0.261869
0.222597
-0.22652
0.23918
-0.199349
0.253764
-0.176234
0.266944
-0.158355
0.279232
-0.144554
0.29088
-0.133564
0.302121
-0.124971
0.313087
-0.118404
0.323824
-0.113084
0.334373
-0.108777
0.344704
-0.104669
0.354783
-0.099893
0.36438
-0.0917104
0.373174
-0.0802406
0.38098
-0.0686381
0.387751
-0.0572265
0.393482
-0.0461596
0.398112
-0.0352957
0.401684
-0.0247817
0.404177
-0.0145637
0.405606
-0.00464847
0.405981
0.00520105
0.405222
0.0154003
0.403227
0.0268973
0.399637
0.0426021
0.393713
0.0662287
0.384685
0.120804
0.370113
0.217328
-0.19786
0.233174
-0.346481
0.268869
-0.352038
0.309722
-0.389218
0.345058
-0.344324
0.379574
-0.335348
0.413167
-0.322032
0.443204
-0.288716
0.47084
-0.263868
0.495978
-0.237307
0.51844
-0.209218
0.53872
-0.184948
0.556952
-0.161037
0.573244
-0.13811
0.587723
-0.116363
0.600395
-0.0944926
0.611251
-0.0728722
0.6203
-0.0505237
0.627468
-0.028186
0.632642
-0.00473312
0.63576
0.0185124
0.636903
0.0424379
0.63603
0.0646059
0.633303
0.0847113
0.628958
0.0995766
0.623147
0.107952
0.615914
0.114684
0.60744
0.122484
0.597788
0.130007
0.58705
0.137745
0.575304
0.145797
0.562556
0.154268
0.548783
0.163421
0.53394
0.173902
0.517876
0.18701
0.500324
0.204828
0.480746
0.233686
0.458134
0.279019
0.432822
0.385186
0.398839
0.529206
-0.162846
-0.347841
-0.127241
-0.362384
-0.0819709
-0.449913
-0.0375117
-0.454079
0.00772556
-0.468199
0.054033
-0.482952
0.0979773
-0.467139
0.136362
-0.421357
0.169353
-0.37464
0.197764
-0.3318
0.221282
-0.285387
0.240826
-0.246064
0.257636
-0.216159
0.272277
-0.190875
0.285414
-0.171492
0.297615
-0.156756
0.309168
-0.145117
0.320332
-0.136135
0.331256
-0.129328
0.342029
-0.123858
0.352663
-0.11941
0.363162
-0.115168
0.373448
-0.11018
0.383337
-0.101599
0.392447
-0.0893501
0.400592
-0.0767833
0.407706
-0.0643403
0.413745
-0.0521986
0.4187
-0.0402506
0.42255
-0.0286315
0.425288
-0.017302
0.426923
-0.00628339
0.427428
0.00469552
0.42676
0.0160687
0.424769
0.0288882
0.421159
0.0462127
0.415156
0.0722315
0.406216
0.129744
0.392351
0.231193
-0.199564
0.236825
-0.383741
0.274485
-0.389699
0.317639
-0.432372
0.354866
-0.38155
0.391167
-0.371649
0.42652
-0.357385
0.458107
-0.320303
0.487059
-0.29282
0.513434
-0.263681
0.536894
-0.232678
0.558143
-0.206197
0.577163
-0.180057
0.594167
-0.155114
0.609323
-0.131518
0.62254
-0.107709
0.634079
-0.0844113
0.64375
-0.0601944
0.65151
-0.0359461
0.657335
-0.0105585
0.661118
0.0147302
0.662842
0.0407132
0.66258
0.0648685
0.660428
0.0868626
0.65659
0.103416
0.651198
0.113343
0.644294
0.121588
0.636055
0.130723
0.626526
0.139536
0.615778
0.148493
0.603907
0.157668
0.590923
0.167252
0.576838
0.177506
0.561559
0.18918
0.545005
0.203565
0.526856
0.222977
0.506634
0.253908
0.483268
0.302385
0.457362
0.411092
0.423878
0.562691
-0.162771
-0.384634
-0.125121
-0.400034
-0.0774711
-0.497563
-0.0306347
-0.500915
0.016914
-0.515748
0.0655524
-0.53159
0.111762
-0.513348
0.151931
-0.461526
0.186394
-0.409103
0.21591
-0.361317
0.240212
-0.309688
0.26023
-0.266083
0.277318
-0.233247
0.292065
-0.205622
0.305187
-0.184614
0.31733
-0.168899
0.328796
-0.156583
0.339853
-0.147192
0.35072
-0.140195
0.361491
-0.134629
0.37218
-0.1301
0.382789
-0.125777
0.393279
-0.12067
0.403421
-0.111741
0.412826
-0.0987552
0.421292
-0.0852491
0.428737
-0.0717857
0.435117
-0.0585781
0.440384
-0.0455175
0.444517
-0.0327647
0.447498
-0.0202829
0.449324
-0.00810979
0.449987
0.00403258
0.449409
0.0166464
0.447448
0.0308486
0.443812
0.0498494
0.437765
0.0782784
0.429
0.138508
0.415827
0.244366
-0.201584
0.240952
-0.423109
0.280636
-0.429383
0.326204
-0.47794
0.365387
-0.420733
0.403622
-0.409883
0.440932
-0.394696
0.474048
-0.353419
0.504448
-0.32322
0.532183
-0.291417
0.556749
-0.257243
0.578887
-0.228336
0.598759
-0.199928
0.616397
-0.172753
0.632232
-0.147354
0.646204
-0.121681
0.658311
-0.0965184
0.668585
-0.0704683
0.676917
-0.0442779
0.683231
-0.0168725
0.687584
0.0103775
0.689922
0.0383747
0.690182
0.0646089
0.688587
0.0884581
0.685272
0.10673
0.68035
0.118265
0.673852
0.128087
0.665824
0.138751
0.656433
0.148927
0.645744
0.159182
0.63378
0.169631
0.620606
0.180427
0.606199
0.191913
0.59055
0.20483
0.573481
0.220634
0.554713
0.241744
0.533838
0.274783
0.509827
0.326396
0.483349
0.437569
0.450393
0.595648
-0.162788
-0.42343
-0.12326
-0.439562
-0.0729482
-0.547874
-0.023628
-0.550236
0.0264116
-0.565788
0.0776176
-0.582796
0.126117
-0.561847
0.168267
-0.503677
0.204252
-0.445088
0.235033
-0.392097
0.26019
-0.334846
0.280811
-0.286704
0.298254
-0.25069
0.313172
-0.220541
0.326344
-0.197785
0.33843
-0.180984
0.3498
-0.167953
0.360779
-0.158171
0.371564
-0.150979
0.382286
-0.145351
0.392993
-0.140807
0.403704
-0.136488
0.414356
-0.131322
0.424723
-0.122108
0.434421
-0.108453
0.443187
-0.0940153
0.45095
-0.0795488
0.457638
-0.0652657
0.463215
-0.051095
0.467623
-0.0371721
0.470865
-0.0235251
0.472919
-0.0101638
0.473725
0.0032265
0.473265
0.0171067
0.471353
0.0327607
0.467708
0.0534941
0.461646
0.0843402
0.453028
0.147126
0.440602
0.256792
-0.203972
0.2455
-0.464637
0.287314
-0.471197
0.335397
-0.526023
0.376648
-0.461985
0.417004
-0.450239
0.456271
-0.433963
0.491094
-0.388242
0.523054
-0.35518
0.552087
-0.32045
0.577751
-0.282907
0.600887
-0.251472
0.621637
-0.220679
0.640151
-0.191266
0.656618
-0.163821
0.67118
-0.136243
0.683871
-0.10921
0.694697
-0.0812935
0.703586
-0.0531673
0.710548
-0.0238346
0.715421
0.00550477
0.718255
0.0355408
0.719101
0.0637628
0.718004
0.0895548
0.715187
0.109548
0.710704
0.122748
0.704578
0.134213
0.696858
0.146471
0.687636
0.158149
0.676987
0.169832
0.664965
0.181653
0.65163
0.193761
0.636962
0.206581
0.620901
0.220892
0.603338
0.238196
0.583997
0.261085
0.562493
0.296288
0.537815
0.351074
0.510838
0.464548
0.478429
0.628057
-0.16301
-0.464392
-0.121335
-0.481237
-0.0683221
-0.600888
-0.0163723
-0.602185
0.036312
-0.618472
0.0902051
-0.63669
0.141202
-0.612845
0.185426
-0.5479
0.223112
-0.482774
0.255216
-0.424201
0.281366
-0.360996
0.302632
-0.307969
0.320488
-0.268546
0.335644
-0.235697
0.348894
-0.211036
0.360977
-0.193067
0.372269
-0.179245
0.383146
-0.169049
0.393841
-0.161673
0.404509
-0.156019
0.415201
-0.151499
0.425956
-0.147243
0.436747
-0.142113
0.447342
-0.132704
0.457284
-0.118395
0.466328
-0.103059
0.474391
-0.0876125
0.481389
-0.0722629
0.487271
-0.0569778
0.491978
-0.0418789
0.495477
-0.0270237
0.497729
-0.0124161
0.498729
0.00222652
0.498375
0.0174611
0.496527
0.0346084
0.492899
0.0571221
0.48684
0.0903983
0.478432
0.155534
0.466781
0.268443
-0.206573
0.250321
-0.508385
0.294465
-0.515341
0.345231
-0.576789
0.388718
-0.505471
0.431237
-0.492758
0.472539
-0.475265
0.509221
-0.424925
0.542794
-0.388752
0.57321
-0.350865
0.600109
-0.309806
0.624381
-0.275745
0.645989
-0.242287
0.66527
-0.210547
0.682469
-0.18102
0.69763
-0.151404
0.710923
-0.122502
0.722288
-0.0926587
0.731742
-0.0626213
0.739172
-0.0312643
0.744602
7.46424e-05
0.747942
0.0322012
0.749257
0.0624477
0.748692
0.0901191
0.746352
0.111888
0.74235
0.12675
0.736594
0.139969
0.729164
0.153901
0.720139
0.167173
0.709563
0.180408
0.697532
0.193684
0.684054
0.207239
0.669138
0.221497
0.652722
0.237308
0.634688
0.256231
0.614796
0.280976
0.592622
0.318462
0.567345
0.37635
0.539911
0.491982
0.508021
0.659948
-0.163388
-0.507577
-0.119503
-0.525121
-0.0636218
-0.65677
-0.00883783
-0.656969
0.0466202
-0.67393
0.103321
-0.69339
0.157024
-0.666548
0.203432
-0.594308
0.242951
-0.522293
0.276495
-0.457745
0.303693
-0.388194
0.325695
-0.329971
0.344067
-0.286918
0.359507
-0.251137
0.37289
-0.224418
0.385006
-0.205184
0.396253
-0.190492
0.407042
-0.179838
0.417639
-0.17227
0.42822
-0.1666
0.438887
-0.162166
0.449668
-0.158024
0.460565
-0.15301
0.471328
-0.143468
0.481495
-0.128561
0.490813
-0.112378
0.499157
-0.0959563
0.506462
-0.0795682
0.51263
-0.0631457
0.517623
-0.0468716
0.52138
-0.0307809
0.523877
-0.0149132
0.525044
0.0010601
0.52481
0.0176943
0.523049
0.0363702
0.519449
0.0607221
0.513458
0.0963892
0.505251
0.163741
0.494357
0.279337
-0.209501
0.25565
-0.554534
0.302236
-0.561927
0.355689
-0.630241
0.401643
-0.551425
0.44633
-0.537445
0.489905
-0.51884
0.528437
-0.463457
0.563727
-0.424042
0.595686
-0.382824
0.623895
-0.338015
0.649153
-0.301002
0.671799
-0.264933
0.691845
-0.230594
0.709762
-0.198937
0.725658
-0.1673
0.73949
-0.136335
0.751434
-0.104602
0.761391
-0.0725783
0.769373
-0.0392461
0.775256
-0.00580905
0.779068
0.0283891
0.780907
0.0606095
0.78076
0.0902662
0.778883
0.113764
0.775295
0.130339
0.769922
0.145341
0.762816
0.161007
0.754014
0.175976
0.743592
0.19083
0.731553
0.205723
0.717964
0.220828
0.702816
0.236645
0.686061
0.254062
0.667597
0.274696
0.647123
0.301451
0.624368
0.341217
0.598491
0.402228
0.570581
0.519892
0.539234
0.691296
-0.163974
-0.553103
-0.117708
-0.571388
-0.058744
-0.715733
-0.00105277
-0.714661
0.0573989
-0.732382
0.117109
-0.7531
0.173552
-0.722991
0.222387
-0.643143
0.263812
-0.563719
0.298946
-0.492879
0.327305
-0.416552
0.350133
-0.3528
0.369062
-0.305847
0.384849
-0.266924
0.398419
-0.237988
0.41058
-0.217344
0.421821
-0.201733
0.432521
-0.190538
0.443019
-0.182768
0.453511
-0.177092
0.464123
-0.172777
0.474907
-0.168809
0.485891
-0.163994
0.496812
-0.154389
0.507188
-0.138937
0.516732
-0.121922
0.525333
-0.104558
0.532905
-0.0871395
0.539372
-0.069613
0.544634
-0.0521334
0.548664
-0.0348111
0.551374
-0.0176236
0.552745
-0.000310559
0.552673
0.0177658
0.550977
0.0380666
0.54747
0.0642286
0.54154
0.102319
0.533611
0.17167
0.523488
0.28946
-0.212661
0.26134
-0.603213
0.310396
-0.610984
0.366917
-0.686762
0.415182
-0.599691
0.462393
-0.584655
0.508235
-0.564682
0.548877
-0.504099
0.585899
-0.461064
0.619442
-0.416367
0.648984
-0.367558
0.675522
-0.327539
0.699098
-0.28851
0.720087
-0.251582
0.738759
-0.217609
0.755285
-0.183825
0.769738
-0.150788
0.782199
-0.117063
0.792639
-0.0830184
0.801053
-0.0476604
0.807422
-0.0121778
0.811729
0.0240823
0.81394
0.0583984
0.814242
0.0899639
0.81282
0.115187
0.809649
0.13351
0.804697
0.150293
0.797909
0.167795
0.789331
0.184554
0.779024
0.201137
0.767043
0.217704
0.75338
0.234491
0.738035
0.25199
0.720974
0.271123
0.702083
0.293586
0.681116
0.322418
0.657771
0.364562
0.631335
0.428664
0.602998
0.548228
0.572152
0.722142
-0.164667
-0.601097
-0.115897
-0.620158
-0.0537164
-0.777914
0.00704109
-0.775418
0.0686316
-0.793972
0.13153
-0.815998
0.190977
-0.782438
0.242286
-0.694452
0.285783
-0.607216
0.32257
-0.529666
0.352194
-0.446177
0.375934
-0.376539
0.395492
-0.325405
0.4117
-0.283131
0.425503
-0.251791
0.437773
-0.229614
0.449006
-0.212966
0.459655
-0.201187
0.470059
-0.193172
0.48048
-0.187513
0.491008
-0.183306
0.50179
-0.17959
0.512822
-0.175026
0.523874
-0.165441
0.534432
-0.149495
0.544174
-0.131664
0.553032
-0.113416
0.560863
-0.0949704
0.567579
-0.0763292
0.573139
-0.0576935
0.577416
-0.0390881
0.58037
-0.0205773
0.581916
-0.00185645
0.581997
0.0176851
0.580439
0.0396242
0.577002
0.0676662
0.571213
0.108108
0.563538
0.179346
0.554202
0.298796
-0.216114
0.267409
-0.654509
0.319139
-0.662714
0.378712
-0.746335
0.429701
-0.650679
0.479355
-0.634309
0.527728
-0.613055
0.570387
-0.546758
0.609363
-0.50004
0.644604
-0.451609
0.675632
-0.398585
0.703346
-0.355253
0.728076
-0.313239
0.749946
-0.273452
0.769413
-0.237076
0.786582
-0.200994
0.801676
-0.165882
0.814647
-0.130034
0.825574
-0.0939452
0.834495
-0.0565809
0.841274
-0.0189566
0.845967
0.0193888
0.848607
0.0557582
0.849311
0.0892597
0.848288
0.11621
0.845534
0.136264
0.840935
0.154892
0.834466
0.174263
0.82618
0.192841
0.816046
0.21127
0.804105
0.229645
0.790386
0.248211
0.774896
0.26748
0.757566
0.288453
0.738282
0.312871
0.716833
0.343867
0.692938
0.388457
0.66598
0.455622
0.637236
0.576972