/*--------------------------------*- C++ -*----------------------------------*\
  =========                 |
  \\      /  F ield         | OpenFOAM: The Open Source CFD Toolbox
   \\    /   O peration     | Website:  https://openfoam.org
    \\  /    A nd           | Version:  7
     \\/     M anipulation  |
\*---------------------------------------------------------------------------*/
FoamFile
{
    version     2.0;
    format      ascii;
    class       volVectorField;
    location    "200";
    object      U;
}
// * * * * * * * * * * * * * * * * * * * * * * * * * * * * * * * * * * * * * //

dimensions      [0 1 -1 0 0 0 0];

internalField   nonuniform List<vector> 
10720
(
(0.36607 28.4589 1.66147e-17)
(2.18392 30.7337 -1.54064e-17)
(4.4461 32.9197 0)
(7.0338 34.5973 -4.09374e-16)
(9.88361 35.8613 4.58609e-16)
(12.9286 36.669 3.31304e-16)
(16.0114 36.917 4.54068e-16)
(19.0389 36.6472 0)
(21.9328 35.9231 0)
(24.6156 34.7838 0)
(27.0587 33.3113 1.17237e-16)
(29.2503 31.5956 0)
(31.1621 29.6592 2.36767e-15)
(32.788 27.538 0)
(34.1171 25.2622 0)
(35.1616 22.8782 0)
(35.9094 20.4055 -3.99267e-15)
(36.3642 17.8961 -5.9696e-15)
(36.5072 15.374 5.31166e-15)
(36.3494 12.8994 0)
(35.8732 10.5087 4.36814e-15)
(35.1153 8.27491 -8.55957e-15)
(34.1229 6.24985 4.26322e-15)
(33.0057 4.49689 -1.27864e-16)
(31.9624 3.06391 0)
(31.0779 1.89847 1.69124e-15)
(30.2564 0.912441 2.61712e-17)
(29.3991 0.0643412 -7.41093e-16)
(28.4689 -0.668623 -2.70562e-15)
(27.4621 -1.30121 -9.82287e-15)
(26.3821 -1.84006 4.37826e-15)
(25.2322 -2.28853 7.98299e-15)
(24.0105 -2.64769 6.88657e-15)
(22.7084 -2.91806 2.35375e-14)
(21.2789 -3.09541 -9.52208e-15)
(19.6851 -3.17783 -6.7359e-17)
(17.6257 -3.11337 2.19772e-17)
(15.2015 -2.88842 3.91095e-15)
(9.78398 -2.32306 1.37258e-14)
(-1.08324 26.0203 9.08488e-19)
(-2.26659 23.2625 -8.96475e-18)
(-3.11528 20.1503 4.67021e-17)
(-3.49368 16.5308 -1.38932e-16)
(-3.2468 12.7832 -4.7662e-16)
(-2.3293 9.0405 8.50734e-16)
(-0.804368 5.58142 4.24876e-15)
(1.08925 2.69593 2.57165e-15)
(3.07296 0.321492 0)
(5.28027 -1.74666 0)
(7.56023 -3.30364 2.06648e-15)
(9.68001 -4.31679 7.55387e-16)
(11.5635 -4.90685 -1.25884e-15)
(13.2147 -5.20004 1.03712e-15)
(14.6577 -5.29776 1.71176e-15)
(15.9251 -5.26578 1.10352e-15)
(17.0472 -5.15316 1.40836e-15)
(18.0562 -4.9898 9.3492e-16)
(18.9831 -4.79625 0)
(19.8502 -4.57597 0)
(20.6758 -4.33077 -1.29014e-15)
(21.471 -4.05051 -5.93741e-17)
(22.2379 -3.71995 8.73654e-16)
(22.9465 -3.30827 -6.0766e-16)
(23.5306 -2.8102 2.36634e-17)
(23.9719 -2.2631 0)
(24.2958 -1.69324 1.01912e-16)
(24.5186 -1.11656 0)
(24.6466 -0.544327 0)
(24.6783 0.0120358 1.7773e-17)
(24.5915 0.544355 0)
(24.3999 1.04572 1.26731e-17)
(24.1224 1.51011 -3.55487e-17)
(23.774 1.93211 -5.24351e-16)
(23.3493 2.30784 5.20541e-16)
(22.8384 2.63799 -2.66651e-18)
(22.1159 2.91491 0)
(21.1139 3.10026 5.1255e-15)
(18.2831 3.23656 9.18315e-15)
(7.06943 24.7243 -5.70532e-18)
(8.99387 26.463 -2.49831e-18)
(11.3346 28.0349 0)
(14.0228 29.3361 0)
(16.91 30.3061 -1.34615e-16)
(20.0002 30.8848 -3.17523e-16)
(23.1755 31.0278 0)
(26.3006 30.7579 0)
(29.3197 30.0867 6.71426e-16)
(32.144 29.0653 0)
(34.7192 27.7546 2.46552e-15)
(37.0156 26.2026 0)
(39.0263 24.4895 8.80945e-16)
(40.7592 22.6706 -8.67884e-16)
(42.2202 20.7654 1.74638e-15)
(43.3778 18.8031 -3.49228e-15)
(44.2313 16.7959 3.73752e-15)
(44.7704 14.7689 3.42032e-15)
(44.9953 12.7308 3.34971e-15)
(44.8886 10.7125 2.03567e-16)
(44.451 8.74005 -3.49767e-15)
(43.674 6.86827 3.32134e-15)
(42.5833 5.13872 -1.87374e-16)
(41.215 3.60905 0)
(39.6779 2.33088 0)
(38.1202 1.25062 0)
(36.5994 0.290838 1.41135e-16)
(35.107 -0.558378 -3.15302e-17)
(33.6441 -1.29954 1.98324e-15)
(32.2058 -1.93918 3.76051e-17)
(30.7762 -2.48 -2.97861e-17)
(29.3377 -2.92449 -8.70588e-17)
(27.8715 -3.275 4.74058e-15)
(26.3625 -3.53388 -7.95548e-15)
(24.7704 -3.70107 -4.32147e-17)
(23.0765 -3.77758 -9.20646e-15)
(21.0225 -3.72297 0)
(18.8273 -3.53689 -1.13094e-15)
(13.5354 -2.77728 7.27547e-15)
(5.43901 22.8698 7.27493e-18)
(4.02015 20.8052 -3.98145e-17)
(2.76764 18.3856 -4.99419e-16)
(1.80859 15.6346 6.14773e-16)
(1.31921 12.6473 0)
(1.3858 9.55664 -1.32311e-15)
(2.03597 6.55793 -9.47964e-16)
(3.19464 3.87386 -7.35461e-15)
(4.68691 1.53436 2.35219e-15)
(6.42725 -0.411534 -1.7793e-15)
(8.30211 -1.8405 2.23814e-15)
(10.1501 -2.7949 -6.37122e-16)
(11.8833 -3.39194 0)
(13.4691 -3.73086 -4.25389e-16)
(14.899 -3.89454 5.26442e-17)
(16.1836 -3.93641 -9.48666e-16)
(17.3387 -3.90154 0)
(18.3872 -3.81553 0)
(19.3528 -3.69663 -9.81332e-17)
(20.258 -3.54263 9.4273e-17)
(21.1182 -3.35187 -1.11489e-15)
(21.9457 -3.10795 -1.20354e-16)
(22.7423 -2.79103 5.28472e-17)
(23.4846 -2.36449 5.87676e-16)
(24.1188 -1.84119 -4.15229e-16)
(24.6203 -1.28801 -3.05349e-16)
(25.0048 -0.733754 0)
(25.2852 -0.189545 0)
(25.465 0.338206 0)
(25.5495 0.840663 8.5595e-18)
(25.568 1.31024 0)
(25.5164 1.74395 0)
(25.3843 2.1407 9.94113e-17)
(25.1653 2.49953 1.97057e-16)
(24.8512 2.8222 -4.21927e-16)
(24.451 3.1141 7.94203e-16)
(23.8632 3.37319 -2.46337e-15)
(23.2743 3.59339 -3.92795e-15)
(21.1796 3.63062 -6.18694e-15)
(8.3628 22.7616 -1.04009e-18)
(9.76266 24.2851 1.87269e-17)
(11.4596 25.7619 -1.53852e-17)
(13.4066 27.1173 -4.29828e-17)
(15.5484 28.233 -1.76581e-16)
(17.8855 29.0845 6.10879e-16)
(20.3431 29.6316 -4.27327e-16)
(22.8449 29.8378 -4.99647e-16)
(25.336 29.7016 4.52038e-18)
(27.7584 29.235 -6.49075e-16)
(30.0601 28.4595 6.02121e-16)
(32.2095 27.4048 -1.5634e-15)
(34.1793 26.1022 -7.46403e-16)
(35.9556 24.5803 0)
(37.5212 22.8747 -1.78633e-15)
(38.8907 21.0104 3.58963e-15)
(40.0692 19.0076 0)
(41.0371 16.91 -6.79772e-15)
(41.7848 14.7473 -3.39876e-15)
(42.2846 12.572 3.96313e-16)
(42.5242 10.4218 -3.92729e-16)
(42.482 8.3647 -1.78049e-16)
(42.1596 6.44997 -2.53029e-15)
(41.5649 4.74019 1.27133e-15)
(40.7489 3.2804 0)
(39.789 2.01462 1.11063e-15)
(38.7063 0.873998 -1.31184e-16)
(37.4952 -0.141591 0)
(36.1732 -1.029 1.74404e-15)
(34.7677 -1.79256 3.2373e-15)
(33.2994 -2.4351 -5.70724e-15)
(31.7819 -2.9606 -4.91235e-15)
(30.2179 -3.37415 -1.05528e-16)
(28.6033 -3.68047 -6.97965e-15)
(26.9036 -3.88185 -5.59647e-15)
(25.1004 -3.9779 8.02849e-15)
(22.9522 -3.93557 0)
(20.6819 -3.71127 -8.84779e-16)
(15.8059 -3.02359 -1.10769e-14)
(7.21279 21.1533 -1.27046e-17)
(6.2 19.3912 -5.06154e-17)
(5.34447 17.3131 1.97119e-16)
(4.65021 14.9807 0)
(4.26609 12.4735 3.83159e-16)
(4.2419 9.85757 0)
(4.60731 7.25999 2.71985e-15)
(5.34788 4.84513 1.63763e-15)
(6.4152 2.69405 1.53462e-15)
(7.75052 0.8626 0)
(9.23746 -0.595362 -2.2523e-15)
(10.7596 -1.69356 -4.82656e-16)
(12.2421 -2.48808 2.18414e-15)
(13.6442 -3.03701 0)
(14.9462 -3.39302 -1.01665e-15)
(16.1456 -3.60087 -3.06982e-16)
(17.2481 -3.69965 1.26646e-15)
(18.2665 -3.71655 6.56268e-16)
(19.2172 -3.67095 1.80468e-16)
(20.1172 -3.56893 -9.78839e-17)
(20.9785 -3.41357 1.01628e-15)
(21.8101 -3.19681 0)
(22.612 -2.9055 0)
(23.3648 -2.5179 2.33451e-17)
(24.025 -2.04729 0)
(24.5688 -1.54201 6.32415e-16)
(25.0067 -1.02152 -8.30541e-18)
(25.35 -0.493657 -3.95008e-17)
(25.6024 0.0337921 0)
(25.7654 0.550737 -2.35417e-17)
(25.8442 1.04974 3.53223e-17)
(25.8443 1.52435 0)
(25.7679 1.96859 -6.97686e-17)
(25.615 2.37723 0)
(25.3737 2.74843 0)
(25.0431 3.0829 3.88119e-17)
(24.5115 3.37979 -5.24746e-17)
(23.9003 3.59772 3.92565e-15)
(22.0255 3.63593 1.1973e-14)
(10.9015 20.8583 -1.01757e-17)
(12.1935 22.1584 -6.63145e-18)
(13.7384 23.4217 -6.46939e-18)
(15.5115 24.5741 -1.13688e-17)
(17.4633 25.5249 0)
(19.6 26.2557 0)
(21.8643 26.7235 -7.13532e-16)
(24.1939 26.8938 8.53485e-16)
(26.5417 26.7602 0)
(28.8518 26.3259 -1.03097e-15)
(31.0725 25.6056 -1.30483e-15)
(33.1657 24.6228 -1.23248e-15)
(35.097 23.408 1.46801e-15)
(36.8396 21.9944 1.38401e-15)
(38.3743 20.4154 0)
(39.686 18.7052 2.1953e-15)
(40.7468 16.9061 7.60128e-16)
(41.5471 15.0505 6.12815e-15)
(42.0842 13.1648 3.71228e-16)
(42.3636 11.2773 -3.68103e-16)
(42.393 9.41956 3.11134e-15)
(42.1877 7.63585 -5.09512e-16)
(41.7755 5.96689 2.77399e-15)
(41.1925 4.45717 1.1579e-15)
(40.4946 3.13841 -6.85429e-17)
(39.7388 1.97337 -1.00477e-15)
(38.9281 0.90753 7.4174e-18)
(38.0296 -0.0634919 -7.4415e-18)
(37.024 -0.936073 -1.67096e-15)
(35.9053 -1.71064 -4.42342e-17)
(34.6707 -2.38338 2.78986e-15)
(33.3234 -2.94997 -4.7469e-15)
(31.8678 -3.40772 -3.83301e-15)
(30.309 -3.75522 -1.93041e-18)
(28.6252 -3.99077 5.0908e-15)
(26.8071 -4.10868 0)
(24.6357 -4.07948 4.17686e-15)
(22.2966 -3.81318 7.66112e-16)
(17.672 -3.16725 4.61891e-15)
(9.81156 19.4959 -2.54258e-17)
(8.83048 18.0155 6.57769e-17)
(7.96492 16.2678 2.95176e-16)
(7.23469 14.2904 0)
(6.76702 12.1557 -3.41891e-16)
(6.60046 9.90703 0)
(6.76086 7.64275 -2.18511e-15)
(7.23573 5.49434 -1.01302e-16)
(7.99593 3.53191 1.12181e-15)
(9.00336 1.80827 9.9884e-16)
(10.1736 0.375814 3.58466e-17)
(11.4241 -0.755729 1.68552e-15)
(12.6932 -1.61499 -1.09534e-15)
(13.9366 -2.24185 3.47234e-16)
(15.1265 -2.67622 1.18463e-15)
(16.2498 -2.9577 1.3039e-15)
(17.303 -3.12076 -1.16845e-15)
(18.2896 -3.19275 5.42361e-18)
(19.2191 -3.19366 0)
(20.1026 -3.1331 1.21434e-15)
(20.9496 -3.01456 5.94334e-17)
(21.7662 -2.83275 -9.12234e-16)
(22.5517 -2.57688 0)
(23.2897 -2.23025 2.21218e-17)
(23.9439 -1.80009 0)
(24.4912 -1.32489 -2.9734e-16)
(24.9373 -0.827496 0)
(25.2924 -0.319712 3.7068e-17)
(25.5604 0.188342 -1.16512e-18)
(25.7437 0.68618 6.5477e-19)
(25.8465 1.16479 -3.20071e-17)
(25.8742 1.61664 -1.05443e-18)
(25.8299 2.03764 0)
(25.7156 2.42527 1.77177e-16)
(25.5215 2.7796 3.30649e-18)
(25.2469 3.10063 -8.0204e-16)
(24.7857 3.389 5.00676e-15)
(24.2283 3.57608 1.1982e-17)
(22.5331 3.60385 0)
(12.4692 19.4023 -1.45508e-17)
(13.5664 20.5534 -6.25666e-19)
(14.8852 21.6938 -1.07888e-17)
(16.3908 22.7598 1.62852e-16)
(18.041 23.6686 -5.53962e-17)
(19.8576 24.4144 -1.9467e-16)
(21.7931 24.9569 3.07671e-16)
(23.7996 25.2607 0)
(25.8465 25.3149 1.19518e-15)
(27.8876 25.1124 5.55574e-16)
(29.8816 24.6542 0)
(31.7949 23.9503 1.18438e-15)
(33.5939 23.0177 -6.23652e-16)
(35.2504 21.8756 1.73417e-15)
(36.7425 20.5466 0)
(38.0492 19.0543 -2.87901e-15)
(39.1584 17.416 2.73553e-15)
(40.0602 15.653 -1.67824e-16)
(40.7397 13.7973 0)
(41.1813 11.8933 2.95898e-15)
(41.3752 9.98678 -2.98643e-15)
(41.3207 8.13579 -1.52359e-16)
(41.0354 6.39341 -2.32024e-15)
(40.5548 4.81151 -2.12984e-15)
(39.9391 3.42589 0)
(39.2552 2.2094 0)
(38.5284 1.1103 -2.3015e-16)
(37.7474 0.115254 -2.57699e-17)
(36.903 -0.777458 1.58913e-15)
(35.9888 -1.57245 -4.21814e-17)
(34.9917 -2.27014 4.21165e-17)
(33.895 -2.8681 4.44429e-15)
(32.68 -3.36312 0)
(31.3317 -3.75085 1.23801e-14)
(29.817 -4.02552 -4.26277e-17)
(28.1231 -4.17494 0)
(26.0479 -4.16989 -3.20335e-17)
(23.7517 -3.88289 0)
(19.3476 -3.25541 -3.92614e-15)
(11.5378 18.2024 2.41399e-17)
(10.6969 16.911 -1.57064e-16)
(9.93434 15.3856 1.73419e-16)
(9.2629 13.6617 2.783e-16)
(8.79522 11.8062 -1.09882e-15)
(8.56044 9.84231 -1.42346e-15)
(8.58961 7.84484 1.74465e-15)
(8.8812 5.92201 -1.92463e-15)
(9.42086 4.13877 -8.67711e-16)
(10.1834 2.54176 -7.72058e-16)
(11.1069 1.17348 1.48908e-15)
(12.1299 0.0495955 -1.43132e-15)
(13.2039 -0.844963 -6.27612e-16)
(14.2889 -1.53568 6.10631e-16)
(15.3556 -2.04822 -1.32778e-15)
(16.3869 -2.41249 2.431e-16)
(17.3736 -2.65512 0)
(18.3131 -2.79878 -9.2506e-16)
(19.209 -2.86085 3.27299e-16)
(20.0676 -2.85175 -1.27062e-15)
(20.8947 -2.77568 0)
(21.6939 -2.63001 7.90587e-16)
(22.4632 -2.40716 6.21768e-16)
(23.1877 -2.09619 -4.72359e-16)
(23.8366 -1.70303 0)
(24.3872 -1.25968 -3.14715e-16)
(24.8409 -0.78988 0)
(25.2056 -0.305635 0)
(25.4845 0.183367 0)
(25.68 0.666819 3.92033e-17)
(25.7958 1.13564 0)
(25.837 1.58307 0)
(25.8068 2.0039 -1.55736e-16)
(25.7079 2.39384 -1.68223e-16)
(25.5321 2.7512 0)
(25.2803 3.07361 -8.34315e-16)
(24.8551 3.36114 6.28522e-17)
(24.3449 3.5309 0)
(22.8409 3.54606 -5.20053e-15)
(13.9538 18.1279 1.73891e-17)
(14.9473 19.1476 -1.23833e-17)
(16.1369 20.1644 0)
(17.49 21.1189 8.12203e-18)
(18.9656 21.938 -1.33051e-16)
(20.5943 22.6217 1.83542e-16)
(22.3346 23.132 4.54048e-17)
(24.1478 23.4368 -7.67231e-16)
(26.0126 23.5233 -9.30051e-17)
(27.8906 23.3806 1.14058e-15)
(29.7461 23.0047 -4.06624e-16)
(31.5491 22.3992 9.15168e-16)
(33.2663 21.5742 4.57717e-16)
(34.8684 20.5434 3.31769e-16)
(36.3299 19.3256 0)
(37.6271 17.9422 -6.24722e-16)
(38.7389 16.4191 -1.37789e-15)
(39.6407 14.7936 -5.09628e-15)
(40.3156 13.0996 1.50267e-15)
(40.7543 11.3681 -1.90738e-15)
(40.9522 9.63395 -2.98774e-16)
(40.9134 7.93839 0)
(40.6541 6.32464 2.07742e-15)
(40.2056 4.83537 1.3233e-16)
(39.6187 3.50321 -5.90783e-17)
(38.9512 2.3153 -8.23097e-16)
(38.2316 1.23397 1.89798e-16)
(37.4595 0.248632 3.97129e-16)
(36.6358 -0.639572 -1.48615e-15)
(35.7655 -1.43357 -7.93843e-17)
(34.8477 -2.13493 2.53064e-15)
(33.8743 -2.74293 4.11039e-15)
(32.8282 -3.25584 0)
(31.6855 -3.66976 -1.85831e-17)
(30.3967 -3.97751 -4.63411e-15)
(28.9291 -4.16142 0)
(27.0723 -4.18985 -7.39365e-15)
(24.9654 -3.90401 0)
(20.8563 -3.30689 3.55968e-15)
(13.1021 17.0688 -2.43459e-17)
(12.3293 15.9363 6.41358e-17)
(11.6145 14.5955 0)
(10.9711 13.0767 0)
(10.4987 11.4431 4.72289e-16)
(10.2174 9.70781 2.36031e-15)
(10.1562 7.92841 0)
(10.3196 6.19771 -1.40907e-15)
(10.6996 4.57727 -1.35338e-15)
(11.2767 3.10427 1.36132e-15)
(12.0057 1.81284 -5.4917e-17)
(12.8404 0.721562 5.9419e-16)
(13.7442 -0.176667 2.93936e-17)
(14.6835 -0.897406 1.57171e-15)
(15.6312 -1.45622 1.41079e-15)
(16.5691 -1.87453 -1.32444e-15)
(17.4851 -2.17248 1.86595e-16)
(18.3725 -2.36858 -3.46957e-16)
(19.2298 -2.47782 1.60595e-16)
(20.0588 -2.51039 9.339e-16)
(20.8623 -2.47119 1.20876e-16)
(21.641 -2.35953 -8.77392e-17)
(22.3915 -2.17003 -5.29999e-16)
(23.1004 -1.89536 0)
(23.7408 -1.54039 2.21043e-17)
(24.291 -1.13108 5.85806e-16)
(24.7489 -0.690163 -3.11442e-18)
(25.1199 -0.230074 3.08883e-18)
(25.4068 0.239003 0)
(25.6112 0.706138 -3.68199e-17)
(25.7365 1.16164 0)
(25.7872 1.59767 0)
(25.7664 2.00831 1.43309e-16)
(25.6766 2.38909 2.12596e-16)
(25.5102 2.73807 0)
(25.2682 3.0513 7.76665e-16)
(24.8594 3.32839 -4.649e-15)
(24.3688 3.47466 2.15716e-17)
(23.0194 3.46696 4.75728e-15)
(15.1614 17.0445 -2.45873e-19)
(16.0558 17.9594 -1.21044e-17)
(17.1265 18.8791 -2.46841e-18)
(18.3391 19.7482 2.40604e-18)
(19.6531 20.5012 8.97107e-17)
(21.1047 21.1438 0)
(22.6564 21.6425 -3.4711e-16)
(24.2754 21.9679 9.05803e-18)
(25.9491 22.1083 -3.43598e-16)
(27.6448 22.0516 -6.93807e-16)
(29.334 21.7903 0)
(30.9924 21.3231 -1.66503e-15)
(32.5896 20.6537 -1.42579e-15)
(34.0984 19.7896 -3.46115e-15)
(35.4934 18.7432 0)
(36.7498 17.5308 -2.12523e-15)
(37.8442 16.173 -2.2252e-15)
(38.7582 14.6889 2.40507e-15)
(39.475 13.1031 -2.36438e-15)
(39.9791 11.4496 2.18889e-15)
(40.2598 9.76782 2.68606e-16)
(40.314 8.10565 -2.31237e-15)
(40.1507 6.51125 0)
(39.7943 5.02946 -1.9814e-15)
(39.2866 3.69265 1.16186e-16)
(38.6776 2.49435 8.61993e-16)
(37.997 1.40413 0)
(37.25 0.410954 -2.95154e-17)
(36.4407 -0.484369 6.3259e-17)
(35.5783 -1.28435 2.43151e-15)
(34.6698 -1.9909 -2.25384e-15)
(33.7179 -2.60422 -3.91488e-15)
(32.7193 -3.12393 3.31896e-15)
(31.6647 -3.54846 -6.12501e-17)
(30.5162 -3.87283 4.44264e-15)
(29.2458 -4.07954 6.20683e-15)
(27.6426 -4.13761 3.59179e-15)
(25.8369 -3.86476 -1.13165e-17)
(22.1492 -3.31611 -3.61723e-18)
(14.3889 16.0963 9.88473e-18)
(13.6849 15.0888 1.2605e-16)
(13.0215 13.8938 1.73356e-16)
(12.4114 12.5387 -3.24629e-16)
(11.9448 11.0837 -1.29647e-15)
(11.6367 9.53447 4.26902e-16)
(11.5138 7.93538 1.11133e-15)
(11.5858 6.36894 2.89531e-15)
(11.8481 4.89377 1.17014e-15)
(12.2842 3.53775 -1.09763e-15)
(12.8604 2.3289 -3.78333e-17)
(13.5415 1.28565 -5.32517e-16)
(14.2995 0.40415 0)
(15.1078 -0.325121 -2.58225e-17)
(15.9426 -0.91108 -8.69624e-16)
(16.7872 -1.36858 3.80221e-16)
(17.6288 -1.71196 -3.72805e-16)
(18.458 -1.95487 0)
(19.2703 -2.10907 5.66169e-16)
(20.0641 -2.18331 -9.88654e-16)
(20.839 -2.18202 0)
(21.5936 -2.10544 7.25652e-16)
(22.3233 -1.94999 0)
(23.0151 -1.71109 -2.76378e-17)
(23.6455 -1.39314 2.7351e-17)
(24.1935 -1.01741 -2.86453e-16)
(24.6543 -0.605163 -5.18219e-18)
(25.0309 -0.169418 -3.15075e-18)
(25.3252 0.279181 8.32266e-19)
(25.5384 0.729457 -4.75159e-17)
(25.6729 1.17128 -6.84452e-17)
(25.733 1.59654 1.05503e-16)
(25.7212 1.9989 2.96114e-18)
(25.6398 2.3731 2.59283e-17)
(25.4812 2.71628 0)
(25.2463 3.02239 1.48576e-17)
(24.8494 3.28989 2.14992e-15)
(24.3697 3.41433 -1.04561e-17)
(23.1373 3.38021 4.35234e-15)
(16.2181 16.0915 3.71167e-18)
(17.0379 16.9168 1.80932e-17)
(18.0177 17.7501 0)
(19.1231 18.5395 -2.53265e-17)
(20.314 19.2258 3.75621e-17)
(21.6291 19.8187 0)
(23.0344 20.2871 -1.29147e-16)
(24.5013 20.605 9.99239e-16)
(26.0229 20.762 -1.37525e-15)
(27.572 20.7456 4.38775e-16)
(29.125 20.5467 5.91189e-16)
(30.6624 20.1611 2.12198e-15)
(32.1576 19.5882 1.51446e-15)
(33.5856 18.8311 1.79959e-15)
(34.9218 17.8974 4.73962e-16)
(36.1407 16.7992 1.56294e-15)
(37.2185 15.5525 2.13766e-15)
(38.1329 14.1791 2.06177e-15)
(38.8618 12.7089 -1.51433e-15)
(39.3888 11.1728 -4.62922e-15)
(39.7037 9.60511 0)
(39.8038 8.04519 8.48595e-17)
(39.6972 6.53496 1.80025e-15)
(39.4048 5.11428 1.88595e-15)
(38.9614 3.81333 -1.0708e-16)
(38.4083 2.63295 -7.78133e-16)
(37.7733 1.55232 5.57609e-18)
(37.0637 0.563057 -3.95041e-16)
(36.2839 -0.332695 4.15667e-17)
(35.4419 -1.13544 -4.56193e-15)
(34.5451 -1.84596 -7.72542e-18)
(33.5986 -2.46357 -6.15582e-17)
(32.6043 -2.9874 -3.19158e-15)
(31.5632 -3.41583 -6.09445e-17)
(30.4536 -3.74503 -4.14884e-15)
(29.272 -3.95886 -1.18666e-14)
(27.8388 -4.03182 3.4021e-15)
(26.3282 -3.76881 6.49781e-16)
(23.1599 -3.27613 2.85784e-15)
(15.5052 15.2378 -4.55463e-17)
(14.8537 14.3344 -1.71948e-16)
(14.2308 13.2609 -1.25926e-16)
(13.6491 12.0417 -3.21564e-16)
(13.1905 10.7344 7.24923e-16)
(12.8667 9.33937 -5.24864e-17)
(12.7015 7.89173 -2.84651e-15)
(12.7073 6.46688 -9.98461e-16)
(12.8815 5.12007 1.3896e-17)
(13.2096 3.8715 0)
(13.6656 2.74485 -9.40413e-16)
(14.2215 1.75713 8.79675e-16)
(14.8562 0.905546 -8.49388e-16)
(15.5488 0.183825 -4.35785e-16)
(16.2797 -0.412651 3.65231e-16)
(17.0346 -0.89402 3.62849e-16)
(17.8012 -1.26964 1.30602e-15)
(18.5694 -1.54885 -3.09379e-16)
(19.3328 -1.74027 -5.28955e-16)
(20.0873 -1.85083 0)
(20.8301 -1.88418 -8.06781e-16)
(21.5578 -1.84092 -6.02378e-16)
(22.2644 -1.71858 -1.1937e-17)
(22.9376 -1.51452 -6.5164e-17)
(23.556 -1.23283 -2.15457e-17)
(24.0996 -0.89074 3.29884e-16)
(24.5613 -0.507854 -6.45482e-18)
(24.942 -0.097474 5.20736e-17)
(25.2425 0.3295 9.38416e-18)
(25.4635 0.761779 4.35448e-17)
(25.6067 1.1889 -1.02206e-17)
(25.6756 1.60223 -2.28949e-16)
(25.6726 1.99485 -2.14054e-16)
(25.5995 2.36081 -2.12346e-16)
(25.4489 2.6965 -9.19575e-18)
(25.2212 2.99401 5.1341e-18)
(24.836 3.25043 -2.15845e-15)
(24.368 3.35412 -3.00796e-15)
(23.2333 3.29413 -4.0014e-15)
(17.1319 15.2484 -1.13414e-17)
(17.8876 15.9974 -6.38913e-18)
(18.7896 16.7566 -8.63897e-18)
(19.8034 17.4773 -4.03399e-17)
(20.8892 18.1052 6.97661e-17)
(22.0869 18.6531 -1.56221e-16)
(23.365 19.093 4.90955e-16)
(24.6978 19.4014 0)
(26.0827 19.5702 4.19725e-16)
(27.4963 19.5873 1.07905e-17)
(28.9194 19.4432 -5.07809e-16)
(30.3372 19.1324 -1.95678e-15)
(31.7267 18.6517 -7.91336e-16)
(33.0655 18.0008 0)
(34.3312 17.1836 0)
(35.4993 16.208 0)
(36.5458 15.0867 0)
(37.4479 13.8373 -1.99741e-15)
(38.1854 12.4802 1.98152e-15)
(38.7399 11.043 1.93822e-15)
(39.0983 9.55904 -1.55892e-15)
(39.2545 8.06771 1.36627e-15)
(39.2126 6.61101 -1.40773e-15)
(38.989 5.22873 -1.02986e-16)
(38.6122 3.95044 -4.68591e-17)
(38.1177 2.78093 7.8783e-16)
(37.532 1.70596 1.69516e-16)
(36.8653 0.718897 0)
(36.1227 -0.177801 0)
(35.3121 -0.983403 3.82565e-17)
(34.4399 -1.69803 0)
(33.5107 -2.32031 3.39876e-15)
(32.526 -2.84863 -3.0204e-15)
(31.4883 -3.28045 -4.87466e-15)
(30.3818 -3.61162 7.7449e-15)
(29.217 -3.82471 5.65374e-15)
(27.8473 -3.89941 -3.25011e-15)
(26.5149 -3.63252 -1.26316e-15)
(23.8613 -3.1851 -2.74006e-15)
(16.4708 14.4745 0)
(15.8649 13.6583 4.80773e-17)
(15.2784 12.6867 2.40129e-16)
(14.7234 11.5814 -1.03934e-15)
(14.2758 10.3984 9.15627e-16)
(13.9433 9.13323 -7.4804e-16)
(13.7494 7.81439 6.9806e-18)
(13.7069 6.51244 7.58002e-16)
(13.8143 5.2789 8.0668e-16)
(14.0592 4.1283 0)
(14.42 3.08064 3.90312e-16)
(14.8742 2.15144 -1.19351e-15)
(15.4053 1.33777 1.89582e-15)
(15.9972 0.63491 3.46085e-16)
(16.6342 0.0403684 -7.0498e-16)
(17.3047 -0.452542 -6.57381e-16)
(17.9978 -0.849597 -6.05044e-16)
(18.7038 -1.1566 0)
(19.4156 -1.37911 0)
(20.1275 -1.52191 0)
(20.8349 -1.58753 7.58382e-16)
(21.5328 -1.57634 0)
(22.2144 -1.48647 -4.90469e-16)
(22.8673 -1.3165 -6.2801e-17)
(23.4719 -1.07009 -3.79821e-16)
(24.009 -0.761381 -2.9261e-16)
(24.4698 -0.408078 0)
(24.8532 -0.0234983 -4.34527e-17)
(25.159 0.381315 -9.96713e-18)
(25.387 0.794986 1.86149e-18)
(25.5384 1.20677 1.53977e-16)
(25.616 1.6076 -1.75282e-17)
(25.6216 1.99009 2.07882e-16)
(25.5569 2.34756 -2.49234e-16)
(25.4143 2.67556 0)
(25.1942 2.96436 -1.42475e-17)
(24.8213 3.20945 -3.38175e-17)
(24.367 3.29426 2.86013e-15)
(23.3221 3.21032 -2.40261e-17)
(17.9352 14.493 1.38219e-17)
(18.6371 15.1756 0)
(19.4738 15.8693 3.83274e-17)
(20.4109 16.5285 -3.83173e-18)
(21.4091 17.1029 -3.99315e-17)
(22.5085 17.6073 1.46674e-16)
(23.6795 18.016 -2.17053e-16)
(24.8988 18.3087 -2.58111e-16)
(26.1664 18.4784 0)
(27.4622 18.5141 -4.39583e-16)
(28.7708 18.4067 -4.68789e-16)
(30.0808 18.1499 4.65277e-16)
(31.3724 17.739 1.7292e-15)
(32.6269 17.1712 6.89891e-16)
(33.8238 16.4472 -2.08605e-15)
(34.9399 15.5719 -1.49887e-15)
(35.9521 14.5543 1.17787e-15)
(36.8378 13.4084 8.67486e-16)
(37.5755 12.154 -4.3375e-16)
(38.1452 10.8171 4.32024e-16)
(38.5325 9.42782 1.09618e-15)
(38.7302 8.02121 2.03972e-16)
(38.7398 6.63526 -1.91527e-16)
(38.5742 5.30688 -1.27395e-15)
(38.2567 4.06417 0)
(37.8166 2.91515 -6.6768e-16)
(37.2781 1.85216 -3.18736e-16)
(36.6533 0.871603 -2.94016e-16)
(35.9486 -0.0230603 -1.08757e-15)
(35.1717 -0.82962 4.07184e-15)
(34.3292 -1.54715 1.67684e-15)
(33.4252 -2.17361 3.90016e-18)
(32.4605 -2.7065 3.88852e-17)
(31.4364 -3.14223 0)
(30.337 -3.47568 -3.65921e-15)
(29.1747 -3.68702 0)
(27.8195 -3.75915 0)
(26.5404 -3.47889 6.09887e-16)
(24.296 -3.05355 4.45726e-18)
(17.318 13.7879 -4.67852e-17)
(16.751 13.0463 1.61532e-16)
(16.1962 12.1619 1.07292e-17)
(15.6658 11.1543 2.31267e-16)
(15.2303 10.0771 -8.40202e-16)
(14.8944 8.92279 6.30106e-16)
(14.6807 7.7149 3.59151e-17)
(14.6029 6.52063 -6.32849e-16)
(14.6594 5.38709 -6.23468e-16)
(14.8393 4.32503 -6.66419e-16)
(15.1244 3.35175 -1.32827e-15)
(15.4959 2.48115 0)
(15.9405 1.7096 -6.85294e-16)
(16.4456 1.03285 -2.44625e-17)
(16.9989 0.449694 0)
(17.5913 -0.044729 -5.80545e-16)
(18.2141 -0.453521 -2.76906e-16)
(18.8584 -0.779877 -2.61311e-16)
(19.5172 -1.02685 9.04945e-16)
(20.1843 -1.19701 8.10027e-16)
(20.8538 -1.29147 -8.44568e-17)
(21.5196 -1.31013 6.30204e-16)
(22.1741 -1.25133 1.26146e-16)
(22.8052 -1.11412 -6.03901e-17)
(23.3943 -0.901853 3.39041e-16)
(23.9229 -0.626096 2.07256e-17)
(24.3809 -0.302532 0)
(24.7655 0.0557968 0)
(25.0754 0.437775 -1.95154e-18)
(25.3097 0.832054 4.94632e-18)
(25.4687 1.22769 -1.69418e-16)
(25.5545 1.61521 -1.70742e-17)
(25.5687 1.98678 2.65163e-16)
(25.5123 2.335 2.38697e-16)
(25.378 2.6546 1.07573e-17)
(25.1659 2.93415 3.62685e-18)
(24.8061 3.16749 4.01017e-15)
(24.367 3.23489 -2.73187e-15)
(23.4078 3.12955 2.24233e-17)
(18.6447 13.8106 5.27929e-18)
(19.2999 14.4352 0)
(20.0801 15.0711 -2.5583e-17)
(20.9509 15.6754 0)
(21.8735 16.2018 -8.75035e-17)
(22.8881 16.6659 8.47962e-17)
(23.9663 17.0446 1.65547e-16)
(25.0867 17.3199 2.43536e-16)
(26.251 17.4861 0)
(27.4417 17.5335 -2.93929e-16)
(28.6463 17.4539 4.807e-16)
(29.8564 17.2406 -9.8399e-16)
(31.0554 16.8883 -5.49407e-16)
(32.2271 16.3928 -5.56877e-16)
(33.3537 15.7527 1.32979e-15)
(34.414 14.97 1.43372e-15)
(35.3862 14.051 -1.53115e-15)
(36.2481 13.0067 -1.51801e-15)
(36.9787 11.8528 0)
(37.5581 10.6112 3.96885e-16)
(37.9701 9.30896 -7.68409e-16)
(38.2056 7.97901 1.89329e-16)
(38.2635 6.65737 4.22994e-18)
(38.1527 5.3793 3.01379e-15)
(37.8919 4.17175 -1.64773e-16)
(37.5047 3.04469 9.98742e-17)
(37.0132 1.99543 2.95978e-16)
(36.4302 1.02312 3.13356e-16)
(35.7632 0.132107 9.40035e-16)
(35.0201 -0.674044 -1.88279e-15)
(34.208 -1.39337 -1.54425e-15)
(33.3312 -2.02317 -6.05893e-15)
(32.3907 -2.56019 5.22092e-15)
(31.3873 -2.99981 -7.39787e-17)
(30.3048 -3.33603 3.42217e-15)
(29.1532 -3.54639 -1.0712e-16)
(27.8123 -3.61626 5.97133e-17)
(26.5255 -3.32266 3.94591e-18)
(24.5537 -2.89632 -2.11342e-15)
(18.0658 13.1656 2.27321e-17)
(17.533 12.4884 -8.39252e-17)
(17.0068 11.6795 1.66543e-16)
(16.4991 10.7563 0)
(16.0764 9.7707 4.91557e-16)
(15.7408 8.71215 0)
(15.514 7.60119 0)
(15.4102 6.50166 0)
(15.4276 5.45684 1.16125e-15)
(15.5566 4.47473 -5.75939e-16)
(15.7813 3.57062 6.50529e-16)
(16.0852 2.75701 0)
(16.4577 2.02939 0)
(16.8884 1.38334 -5.92557e-16)
(17.3678 0.818176 0)
(17.8893 0.330157 5.40944e-16)
(18.4458 -0.0825058 1.26495e-17)
(19.0302 -0.420907 0)
(19.636 -0.686005 -6.46981e-16)
(20.2569 -0.878617 -9.604e-16)
(20.8866 -0.998498 -6.69949e-16)
(21.5183 -1.04471 -5.84968e-16)
(22.144 -1.01532 1.00478e-15)
(22.7517 -0.909517 0)
(23.3236 -0.730177 3.39688e-16)
(23.8417 -0.486646 3.16979e-16)
(24.2952 -0.192711 1.20112e-16)
(24.6796 0.139111 0)
(24.9924 0.497771 -9.38912e-18)
(25.232 0.872007 -5.87688e-17)
(25.398 1.2508 1.77793e-16)
(25.4918 1.62433 -1.65903e-17)
(25.5143 1.98434 -2.4298e-16)
(25.4662 2.32274 2.63275e-16)
(25.3404 2.63342 -2.05008e-18)
(25.1367 2.90337 1.05033e-17)
(24.7909 3.12465 -3.90663e-15)
(24.368 3.17633 2.55894e-15)
(23.491 3.05247 6.24473e-15)
(19.2758 13.1896 2.17399e-18)
(19.8902 13.763 -1.53615e-17)
(20.6209 14.3473 0)
(21.434 14.9022 -1.26941e-19)
(22.2913 15.3849 0)
(23.2323 15.8115 0)
(24.2298 16.1612 1.84898e-17)
(25.2638 16.4176 2.10341e-16)
(26.3375 16.5766 4.84182e-16)
(27.4351 16.6295 1.22699e-15)
(28.5465 16.5691 6.90342e-16)
(29.6657 16.3891 7.9339e-16)
(30.7787 16.0838 0)
(31.8721 15.648 1.53322e-15)
(32.9303 15.0788 -5.4234e-16)
(33.9344 14.3763 0)
(34.8641 13.5443 1.2786e-15)
(35.6984 12.5907 1.45455e-15)
(36.4168 11.5287 0)
(36.9992 10.3773 1.41148e-15)
(37.4284 9.16112 -1.3789e-15)
(37.694 7.9097 0)
(37.7928 6.65585 -1.63201e-16)
(37.7306 5.43243 3.15953e-17)
(37.5217 4.26499 7.77349e-17)
(37.1849 3.16475 1.16437e-15)
(36.7394 2.13303 -3.98212e-18)
(36.198 1.17188 -3.10063e-17)
(35.5688 0.286877 -2.60993e-17)
(34.8597 -0.51716 5.71124e-17)
(34.078 -1.237 1.55626e-15)
(33.2287 -1.86911 5.48432e-15)
(32.3132 -2.40952 4.30697e-17)
(31.3326 -2.8526 -3.98565e-15)
(30.2716 -3.19157 -3.11083e-15)
(29.1383 -3.40164 -4.60879e-15)
(27.824 -3.46978 -2.69299e-15)
(26.5264 -3.16908 2.15277e-17)
(24.723 -2.72829 1.97084e-15)
(18.7306 12.5975 -5.32393e-17)
(18.2282 11.9767 -2.01875e-16)
(17.7277 11.2339 4.0289e-16)
(17.2414 10.3848 0)
(16.8316 9.47899 8.04167e-16)
(16.4988 8.5042 0)
(16.2638 7.47861 -4.54105e-16)
(16.1408 6.46304 1.82648e-15)
(16.1282 5.49722 -1.41655e-15)
(16.217 4.58751 0)
(16.3931 3.74731 1.05631e-15)
(16.642 2.98791 1.024e-15)
(16.9542 2.30416 0)
(17.3216 1.69143 -1.01452e-15)
(17.7363 1.14891 2.46378e-16)
(18.1939 0.673091 -2.46494e-16)
(18.6891 0.263087 2.4068e-16)
(19.2162 -0.0809339 4.24081e-16)
(19.7698 -0.358435 -1.50858e-17)
(20.3441 -0.568685 5.16363e-16)
(20.9328 -0.710161 1.54028e-16)
(21.5289 -0.78105 -1.46844e-16)
(22.1243 -0.779015 -4.76991e-16)
(22.7072 -0.702963 4.11448e-16)
(23.2603 -0.555076 -3.01649e-16)
(23.7662 -0.342912 -3.2137e-16)
(24.2133 -0.0783584 -1.1426e-16)
(24.5959 0.226796 -1.31837e-18)
(24.9104 0.561698 1.02843e-17)
(25.1544 0.915299 5.62045e-17)
(25.3268 1.27656 8.83713e-18)
(25.4281 1.6354 -1.60688e-17)
(25.4587 1.98315 2.97866e-16)
(25.419 2.31109 -2.70036e-16)
(25.3018 2.61226 1.09913e-17)
(25.107 2.87221 -7.84295e-16)
(24.7759 3.08125 1.89759e-15)
(24.3702 3.11877 0)
(23.5718 2.97881 -5.98732e-15)
(19.84 12.6211 8.75279e-18)
(20.4183 13.1488 0)
(21.1051 13.6869 0)
(21.8673 14.1972 -2.01739e-17)
(22.6671 14.6403 -1.95375e-17)
(23.5433 15.0323 0)
(24.4698 15.3542 0)
(25.4277 15.5917 -6.95123e-16)
(26.421 15.7415 -3.47483e-17)
(27.4356 15.7961 -4.19169e-17)
(28.463 15.7493 -1.59758e-15)
(29.4993 15.595 -4.156e-16)
(30.5324 15.328 7.90186e-16)
(31.5516 14.9426 -6.75192e-17)
(32.5435 14.4349 0)
(33.4912 13.8036 0)
(34.3767 13.0502 -3.50919e-15)
(35.1798 12.1805 -6.4287e-16)
(35.881 11.2049 6.57023e-16)
(36.461 10.1391 -1.36949e-15)
(36.9019 9.00486 2.59931e-15)
(37.1921 7.82883 1.2303e-15)
(37.3263 6.64117 -1.18993e-15)
(37.3077 5.47258 -1.34187e-15)
(37.1466 4.34718 2.12524e-16)
(36.8577 3.27664 -1.14737e-15)
(36.4572 2.26523 -1.29414e-16)
(35.9572 1.31768 2.8845e-17)
(35.366 0.440754 -2.88098e-17)
(34.6915 -0.359418 9.6799e-17)
(33.9409 -1.0784 -4.00432e-17)
(33.1195 -1.7118 -2.70962e-15)
(32.2293 -2.25474 -1.02717e-16)
(31.2718 -2.70072 1.2199e-16)
(30.2336 -3.04205 0)
(29.1218 -3.25219 4.28635e-15)
(27.8412 -3.31839 2.52241e-15)
(26.551 -3.01708 0)
(24.8617 -2.55836 0)
(19.3251 12.0759 0)
(18.8496 11.505 1.81107e-16)
(18.373 10.8205 -6.04855e-16)
(17.9066 10.0369 -2.95094e-16)
(17.5097 9.20154 -7.3248e-16)
(17.1817 8.30061 0)
(16.942 7.35091 0)
(16.805 6.41024 -8.1744e-16)
(16.7693 5.51524 8.5716e-16)
(16.8263 4.67099 0)
(16.9631 3.88949 -4.48107e-16)
(17.1667 3.18117 -4.84185e-16)
(17.4287 2.54042 4.59102e-16)
(17.7421 1.962 4.77075e-16)
(18.1006 1.44482 -8.86692e-16)
(18.5012 0.985472 0)
(18.9402 0.583287 -2.01562e-16)
(19.4134 0.23913 1.19956e-17)
(19.9165 -0.0455471 8.96889e-16)
(20.4447 -0.268851 -1.67279e-16)
(20.9919 -0.428114 1.60451e-16)
(21.5514 -0.520695 -1.23225e-16)
(22.1153 -0.543704 1.74616e-16)
(22.6719 -0.49557 -8.35836e-16)
(23.2047 -0.377603 -2.98254e-16)
(23.6966 -0.195709 2.61158e-16)
(24.1356 0.0399364 -1.60636e-17)
(24.5149 0.318454 0)
(24.8299 0.629343 -9.72042e-18)
(25.0773 0.961821 5.93026e-17)
(25.2553 1.30494 -9.07973e-17)
(25.3636 1.64841 1.59465e-16)
(25.4022 1.98324 -6.01411e-16)
(25.3708 2.3001 6.20604e-16)
(25.2625 2.5912 -9.42009e-18)
(25.077 2.84079 7.42874e-16)
(24.7614 3.0374 3.45924e-17)
(24.3739 3.06241 -7.43281e-17)
(23.6501 2.90904 -5.37152e-15)
(20.3469 12.098 -8.47681e-18)
(20.8928 12.5846 0)
(21.5403 13.0809 0)
(22.257 13.5509 1.71174e-17)
(23.0058 13.9577 2.0182e-17)