/*--------------------------------*- C++ -*----------------------------------*\
  =========                 |
  \\      /  F ield         | OpenFOAM: The Open Source CFD Toolbox
   \\    /   O peration     | Website:  https://openfoam.org
    \\  /    A nd           | Version:  7
     \\/     M anipulation  |
\*---------------------------------------------------------------------------*/
FoamFile
{
    version     2.0;
    format      ascii;
    class       volScalarField;
    location    "313";
    object      p;
}
// * * * * * * * * * * * * * * * * * * * * * * * * * * * * * * * * * * * * * //

dimensions      [0 2 -2 0 0 0 0];

internalField   nonuniform List<scalar> 
10720
(
-90.3519
-164.411
-251.818
-337.279
-415.694
-495.632
-566.032
-624.747
-675.656
-715.156
-745.229
-767.18
-781.812
-790.332
-793.182
-789.902
-781.416
-766.385
-745.953
-718.742
-685.785
-646.276
-602.448
-555.207
-508.054
-466.076
-428.259
-391.013
-354.06
-317.622
-281.518
-245.608
-209.787
-173.827
-137.473
-99.6216
-59.9068
-12.3526
35.4474
-15.3832
52.7294
126.241
195.374
254.933
300.939
329.725
340.822
340.202
329.317
309.575
286.507
263.058
240.253
218.78
198.515
179.551
161.481
144.053
126.774
109.6
92.2112
74.7015
57.4687
42.4053
30.5792
20.9416
13.1057
7.07485
2.9061
0.502594
-0.24152
0.594417
3.01393
7.02861
13.056
21.6504
36.5354
61.622
23.2896
-33.0908
-96.048
-162.708
-230.997
-300.737
-368.253
-431.445
-489.688
-541.207
-585.682
-623.112
-653.561
-677.094
-693.635
-702.901
-705.494
-700.986
-689.922
-671.688
-646.84
-615.107
-578.17
-537.174
-495.208
-456.588
-420.856
-385.218
-349.503
-314.029
-278.704
-243.426
-208.115
-172.563
-136.525
-98.9148
-59.3858
-11.9219
35.123
74.1245
122.768
171.521
218.915
261.058
295.345
318.782
330.094
330.646
321.694
305.809
286.375
265.527
244.376
223.685
203.721
184.651
166.326
148.57
131.064
113.719
96.3267
78.9702
62.0576
47.0622
34.899
24.8488
16.5864
10.1347
5.54857
2.75809
1.66579
2.1899
4.33298
8.11639
13.9616
22.4134
37.2092
61.282
39.7803
-10.683
-67.2768
-129.569
-193.967
-259.787
-325.439
-388.221
-446.557
-499.461
-545.696
-584.957
-617.057
-641.941
-659.805
-670.852
-675.311
-672.996
-664.101
-648.392
-626.169
-597.487
-563.605
-525.807
-486.645
-449.658
-414.958
-380.382
-345.612
-310.925
-276.26
-241.522
-206.646
-171.439
-135.669
-98.2715
-58.9158
-11.644
34.8712
85.4245
130
174.532
217.001
254.024
283.99
304.855
315.921
317.9
311.64
299.032
282.366
263.489
243.678
223.81
204.35
185.534
167.36
149.709
132.353
115.172
98.0262
80.9802
64.4066
49.474
37.077
26.8097
18.3607
11.7321
6.96951
4.01259
2.76406
3.14402
5.15631
8.83064
14.5896
22.9751
37.648
60.7357
64.7919
22.3335
-26.004
-79.0671
-134.652
-192.682
-251.486
-309.235
-364.595
-416.426
-463.591
-505.419
-541.43
-571.335
-594.914
-612.165
-622.847
-626.688
-623.636
-613.571
-596.667
-573.131
-543.982
-510.548
-475.036
-440.468
-407.428
-374.329
-340.792
-307.104
-273.267
-239.208
-204.882
-170.115
-134.69
-97.572
-58.4544
-11.5015
34.473
102.888
139.632
176.611
212.51
244.206
270.463
289.446
300.389
303.582
299.554
289.758
275.901
259.475
241.648
223.271
204.863
186.729
168.986
151.601
134.445
117.429
100.482
83.6747
67.3582
52.4928
39.9218
29.4437
20.7729
13.9045
8.88939
5.67942
4.1888
4.34698
6.16329
9.67503
15.3038
23.579
38.0534
60.16
73.0222
35.2899
-7.87986
-55.5862
-105.703
-158.631
-212.969
-267.069
-319.901
-370.307
-417.138
-459.6
-497.022
-528.876
-554.778
-574.49
-587.651
-594.145
-593.839
-586.72
-572.899
-552.656
-526.826
-496.666
-464.076
-431.576
-399.976
-368.159
-335.742
-302.997
-269.973
-236.61
-202.869
-168.59
-133.564
-96.7847
-57.9735
-11.4457
33.838
106.97
139.537
172.399
204.297
232.481
256.117
273.722
284.556
288.686
286.516
279.145
267.855
253.8
237.982
221.197
203.979
186.691
169.534
152.564
135.738
119.009
102.355
85.8598
69.8522
55.1296
42.4634
31.8145
22.955
15.8823
10.6509
7.22586
5.53181
5.50406
7.1536
10.5229
16.0316
24.1919
38.4382
59.5487
78.3237
44.8782
6.40237
-36.1044
-80.7865
-128.351
-177.497
-226.907
-275.827
-323.198
-368.034
-409.568
-447.059
-479.869
-507.504
-529.559
-545.666
-555.573
-559.006
-555.819
-546.013
-529.822
-507.925
-481.469
-452.11
-421.976
-392.039
-361.626
-330.414
-298.667
-266.488
-233.842
-200.708
-166.939
-132.342
-95.9428
-57.4961
-11.5052
32.9734
108.412
137.159
166.361
194.902
220.248
241.788
258.291
268.98
273.792
273.101
267.734
258.679
246.834
233.022
217.947
202.111
185.89
169.533
153.162
136.805
120.468
104.172
88.0204
72.3269
57.7705
45.0527
34.2594
25.2305
17.9653
12.5212
8.87742
6.96946
6.74038
8.20626
11.4164
16.7878
24.8122
38.7849
58.8838
79.5431
49.371
14.5631
-23.9211
-64.2983
-107.515
-152.406
-197.821
-243.252
-287.75
-330.46
-370.687
-407.67
-440.727
-469.285
-492.83
-510.881
-523.046
-528.992
-528.531
-521.652
-508.576
-489.874
-466.565
-440.075
-412.174
-383.882
-354.869
-324.877
-294.153
-262.84
-230.932
-198.424
-165.187
-131.044
-95.0604
-57.0341
-11.6904
31.8915
106.715
132.592
159.007
184.928
208.031
227.883
243.463
253.962
259.26
259.725
255.991
248.839
238.973
227.055
213.68
199.291
184.248
168.822
153.179
137.405
121.554
105.686
89.9286
74.581
60.2342
47.528
36.637
27.47
20.0344
14.3926
10.5394
8.42341
7.99635
9.27969
12.3288
17.5556
25.4293
39.0851
58.1716
78.8998
51.5062
19.8321
-15.1601
-51.7791
-91.1043
-132.062
-173.651
-215.537
-256.912
-297.032
-335.315
-371.056
-403.585
-432.294
-456.617
-475.997
-490.011
-498.277
-500.513
-496.609
-486.703
-471.239
-451.088
-427.474
-401.885
-375.34
-347.791
-319.075
-289.422
-259.014
-227.879
-196.024
-163.343
-129.68
-94.1435
-56.5885
-11.9933
30.606
103.606
127.079
151.169
174.918
196.165
214.61
229.38
239.651
245.282
246.632
244.211
238.651
230.514
220.328
208.583
195.652
181.857
167.467
152.669
137.586
122.314
106.949
91.6356
76.6655
62.5678
49.9273
38.981
29.7042
22.1188
16.2931
12.2384
9.91773
9.2918
10.3884
13.2693
18.3395
26.0433
39.3382
57.4174
76.8844
51.8037
22.7661
-9.28863
-42.7304
-78.7055
-116.241
-154.433
-193.093
-231.512
-269.069
-305.288
-339.528
-371.16
-399.591
-424.224
-444.469
-459.837
-469.889
-474.266
-472.792
-465.559
-452.916
-435.601
-414.649
-391.296
-366.507
-340.439
-313.021
-284.475
-255.008
-224.678
-193.51
-161.415
-128.258
-93.199
-56.1565
-12.3985
29.1408
99.5381
121.025
143.182
165.109
184.785
202.042
216.085
226.097
231.947
233.971
232.598
228.355
221.703
213.064
202.837
191.32
178.791
165.497
151.624
137.32
122.708
107.913
93.0946
78.5404
64.7335
52.2133
41.2586
31.9057
24.1955
18.2044
13.9598
11.4403
10.6174
11.5254
14.2328
19.1354
26.6505
39.5428
56.6219
74.0793
50.982
24.2187
-5.28969
-35.9777
-69.0187
-103.507
-138.627
-174.294
-209.885
-244.888
-278.921
-311.414
-341.817
-369.562
-394.051
-414.696
-430.968
-442.407
-448.613
-449.32
-444.549
-434.546
-419.913
-401.513
-380.364
-357.36
-332.803
-306.712
-279.307
-250.815
-221.324
-190.875
-159.399
-126.78
-92.2335
-55.7388
-12.8956
27.5281
94.9778
114.771
135.278
155.646
173.973
190.196
203.581
213.311
219.29
221.821
221.28
218.118
212.726
205.447
196.601
186.423
175.141
162.966
150.073
136.615
122.733
108.569
94.2974
80.1987
66.7244
54.3772
43.462
34.0683
26.2601
20.1231
15.7013
12.9902
11.9729
12.6904
15.2185
19.9418
27.2489
39.6988
55.787
70.7863
49.4028
24.6125
-2.68368
-30.9726
-61.4425
-93.2409
-125.625
-158.571
-191.536
-224.105
-255.98
-286.659
-315.661
-342.47
-366.521
-387.23
-404.063
-416.517
-424.187
-426.717
-424.069
-416.408
-404.21
-388.185
-369.158
-347.933
-324.898
-300.154
-273.92
-246.434
-217.814
-188.118
-157.292
-125.246
-91.25
-55.3398
-13.4786
25.7924
90.1674
108.505
127.584
146.598
163.75
179.061
191.836
201.277
207.311
210.219
210.333
208.056
203.726
197.627
190.019
181.084
170.998
159.935
148.048
135.483
122.385
108.907
95.2286
81.6246
68.5248
56.4014
45.5742
36.1774
28.3
22.0394
17.4556
14.5619
13.3541
13.8804
16.2241
20.7563
27.8358
39.8066
54.9162
67.2274
47.3463
24.2905
-1.05951
-27.2417
-55.4385
-84.8422
-114.767
-145.243
-175.785
-206.053
-235.823
-264.661
-292.16
-317.856
-341.223
-361.711
-378.789
-391.938
-400.752
-404.816
-404.024
-398.464
-388.496
-374.689
-357.704
-338.241
-316.736
-293.353
-268.313
-241.865
-214.147
-185.235
-155.094
-123.655
-90.2498
-54.9637
-14.146
23.9491
85.2824
102.349
120.177
137.999
154.115
168.607
180.814
189.963
195.994
199.176
199.808
198.251
194.81
189.725
183.215
175.412
166.452
156.47
145.59
133.943
121.67
108.923
95.8795
82.8093
70.1241
58.273
47.5818
38.221
30.3055
23.9451
19.2165
16.1507
14.7578
15.0929
17.2473
21.5767
28.4089
39.8671
54.0124
63.5485
44.9935
23.4758
-0.149049
-24.4662
-50.6424
-77.9097
-105.626
-133.862
-162.188
-190.312
-218.076
-245.107
-271.063
-295.542
-318.064
-338.119
-355.194
-368.766
-378.436
-383.752
-384.538
-380.821
-372.859
-361.096
-346.051
-328.313
-308.332
-286.317
-262.492
-237.107
-210.321
-182.225
-152.803
-122.007
-89.2339
-54.6134
-14.8944
22.0068
80.427
96.3767
113.093
129.852
145.046
158.796
170.47
179.326
185.313
188.688
189.724
188.753
186.054
181.838
176.288
169.505
161.588
152.637
142.747
132.026
120.601
108.617
96.2439
83.7438
71.5122
59.9787
49.4705
40.1861
32.2648
25.8307
20.9763
17.7509
16.1795
16.3244
18.2852
22.4002
28.966
39.8813
53.0793
59.8476
42.4742
22.3321
0.249292
-22.4035
-46.773
-72.1259
-97.8538
-124.062
-150.358
-176.494
-202.364
-227.65
-252.068
-275.274
-296.843
-316.299
-333.165
-346.931
-357.195
-363.509
-365.624
-363.511
-357.344
-347.456
-334.239
-318.178
-299.705
-279.058
-256.461
-232.162
-206.336
-179.087
-150.418
-120.302
-88.2023
-54.2922
-15.7194
19.9735
75.6752
90.6283
106.353
122.154
136.52
149.588
160.759
169.328
175.238
178.743
180.094
179.597
177.514
174.037
169.323
163.45
156.488
148.506
139.571
129.764
119.195
107.995
96.3216
84.4235
72.681
61.5076
51.2278
42.0603
34.1669
27.6864
22.7272
19.3562
17.6145
17.5713
19.3345
23.224
29.5048
39.8514
52.1205
56.1896
39.8795
20.9754
0.281035
-20.8788
-43.6246
-67.2507
-91.1853
-115.55
-139.988
-164.29
-188.387
-212.012
-234.93
-256.847
-277.393
-296.136
-312.634
-326.405
-337.045
-344.125
-347.334
-346.597
-342.016
-333.828
-322.318
-307.87
-290.876
-271.589
-250.228
-227.034
-202.193
-175.821
-147.939
-118.539
-87.1554
-53.9999
-16.6172
17.8587
71.0726
85.1296
99.9568
114.892
128.504
140.943
151.642
159.925
165.736
169.32
170.912
170.798
169.228
166.378
162.389
157.321
151.223
144.14
136.111
127.195
117.477
107.07
96.1168
84.8463
73.6243
62.8499
52.8414
43.831
36
29.5021
24.4605
20.9599
19.0572
18.8291
20.3918
24.0453
30.0229
39.7791
51.1401
52.619
37.2731
19.4906
0.0540862
-19.7586
-41.0348
-63.0978
-85.4075
-108.096
-130.834
-153.447
-175.895
-197.948
-219.418
-240.06
-259.548
-277.499
-293.51
-307.13
-317.957
-325.596
-329.688
-330.115
-326.92
-320.263
-310.334
-297.422
-281.871
-263.926
-243.802
-221.728
-197.894
-172.428
-145.365
-116.719
-86.0932
-53.7371
-17.5812
15.6712
66.6467
79.8928
93.9041
108.048
120.971
132.826
143.079
151.081
156.775
160.399
162.174
162.369
161.224
158.904
155.54
151.18
145.858
139.598
132.42
124.358
115.474
105.859
95.6357
85.0131
74.3395
63.9986
54.301
45.4867
37.753
31.2673
26.1673
22.5544
20.5017
20.0932
21.453
24.8606
30.5185
39.6672
50.1425
49.1667
34.6981
17.9375
-0.351793
-18.9423
-38.882
-59.5261
-80.357
-101.517
-122.702
-143.761
-164.675
-185.252
-205.34
-224.737
-243.16
-260.272
-275.708
-289.051
-299.912
-307.926
-312.71
-314.106
-312.109
-306.813
-298.334
-286.874
-272.716
-256.09
-237.195
-216.251
-193.444
-168.909
-142.697
-114.842
-85.0157
-53.5022
-18.6044
13.4206
62.4135
74.9221
88.186
101.603
113.891
125.201
135.032
142.758
148.321
151.956
153.867
154.308
153.515
151.645
148.817
145.077
140.447
134.937
128.548
121.295
113.217
104.382
94.891
84.929
74.8251
64.9478
55.5973
47.0164
39.4145
32.9713
27.8381
24.1317
21.9413
21.3583
22.5137
25.6668
30.9895
39.5184
49.1319
45.8512
32.1856
16.3642
-0.877804
-18.3504
-37.0728
-56.4203
-75.9031
-95.666
-115.427
-135.054
-154.549
-173.747
-192.527
-210.722
-228.091
-244.338
-259.136
-272.105
-282.874
-291.105
-296.411
-298.597
-297.621
-293.527
-286.366
-276.263
-263.441
-248.1
-230.424
-210.612
-188.846
-165.267
-139.936
-112.908
-83.922
-53.2936
-19.6785
11.119
58.3813
70.2141
82.7904
95.5366
107.235
118.036
127.465
134.922
140.347
143.966
145.975
146.615
146.113
144.622
142.255
139.056
135.038
130.204
124.541
118.046
110.738
102.663
93.8977
84.6018
75.0834
65.6946
56.723
48.4104
40.9738
34.6038
29.4632
25.6835
23.3688
22.6185
23.5692
26.4604
31.4343
39.3359
48.1136
42.6835
29.7576
14.7997
-1.47653
-17.9265
-35.5311
-53.6917
-71.9386
-90.423
-108.877
-127.186
-145.367
-163.279
-180.825
-197.872
-214.21
-229.586
-243.706
-256.229
-266.807
-275.118
-280.798
-283.615
-283.496
-280.448
-274.475
-265.631
-254.078
-239.982
-223.503
-204.822
-184.109
-161.505
-137.085
-110.919
-82.812
-53.109
-20.7946
8.77801
54.5529
65.763
77.7033
89.8277
100.976
111.299
120.346
127.541
132.82
136.406
138.483
139.28
139.019
137.848
135.877
133.148
129.672
125.443
120.443
114.651
108.071
100.728
92.6723
84.0417
75.1193
66.2382
57.6728
49.6602
42.4212
36.1542
31.0328
27.2009
24.7767
23.8675
24.6144
27.2376
31.8514
39.1231
47.0926
39.6702
27.4285
13.2688
-2.11607
-17.6235
-34.2006
-51.2686
-68.3822
-85.6914
-102.944
-120.037
-137.002
-153.714
-170.102
-186.056
-201.4
-215.912
-229.335
-241.359
-251.665
-259.948
-265.87
-269.174
-269.763
-267.617
-262.702
-255.015
-244.659
-231.761
-216.453
-198.893
-179.239
-157.629
-134.145
-108.874
-81.6846
-52.9452
-21.9432
6.41
50.9271
61.5614
72.9108
84.4567
95.0901
104.962
113.646
120.585
125.716
129.254
131.375
132.295
132.232
131.333
129.701
127.38
124.38
120.693
116.291
111.148
105.249
98.6023
91.2364
83.263
74.9398
66.5799
58.4432
50.7586
43.7472
37.6128
32.5368
28.6746
26.1569
25.0988
25.644
27.9948
32.2393
38.8833
46.0735
36.8132
25.2068
11.7888
-2.76973
-17.4068
-33.0344
-49.0957
-65.1648
-81.3914
-97.5363
-113.509
-129.348
-144.947
-160.25
-175.17
-189.559
-203.224
-215.941
-227.431
-237.404
-245.568
-251.621
-255.285
-256.448
-255.07
-251.089
-244.456
-235.219
-223.464
-209.294
-192.842
-174.248
-153.644
-131.12
-106.776
-80.5382
-52.7974
-23.1138
4.02854
47.5017
57.6
68.3983
79.4035
89.5537
98.9989
107.337
114.029
119.009
122.488
124.633
125.65
125.752
125.08
123.739
121.772
119.19
115.983
112.122
107.57
102.305
96.3154
89.6122
82.281
74.554
66.7235
59.0327
51.7003
44.9441
38.97
33.9657
30.0956
27.5011
26.3051
26.6522
28.7283
32.597
38.6201
45.0617
34.1127
23.098
10.3704
-3.4189
-17.2486
-31.9968
-47.1262
-62.231
-77.4562
-92.5792
-107.517
-122.314
-136.878
-151.167
-165.114
-178.59
-191.434
-203.448
-214.383
-223.976
-231.951
-238.04
-241.955
-243.571
-242.838
-239.672
-233.99
-225.791
-215.119
-202.048
-186.684
-169.146
-149.559
-128.015
-104.626
-79.3715
-52.6612
-24.2951
1.64784
44.2705
53.8689
64.1513
74.6493
84.3448
93.3869
101.395
107.846
112.676
116.088
118.241
119.332
119.569
119.091
117.999
116.339
114.123
111.342
107.964
103.95
99.2682
93.8944
87.8217
81.1127
73.9739
66.6753
59.4424
52.4818
46.005
40.2173
35.31
31.4544
28.8008
27.479
27.6331
29.4341
32.9234
38.3368
44.062
31.5666
21.1042
9.02218
-4.04905
-17.1294
-31.059
-45.3242
-59.5352
-73.8352
-88.0112
-101.991
-115.823
-129.425
-142.767
-155.799
-168.41
-180.463
-191.785
-202.155
-211.336
-219.067
-225.112
-229.184
-231.148
-230.946
-228.485
-223.653
-216.409
-206.758
-194.741
-180.438
-163.948
-145.381
-124.833
-102.425
-78.1824
-52.5306
-25.4769
-0.7188
41.2268
50.3588
60.1569
70.1771
79.4441
88.104
95.7968
102.014
106.693
110.033
112.182
113.33
113.678
113.363
112.485
111.091
109.195
106.79
103.844
100.316
96.1681
91.3664
85.8889
79.7774
73.2131
66.443
59.675
53.1011
46.9245
41.3471
36.5608
32.7418
30.0474
28.6129
28.5809
30.1085
33.2179
38.0368
43.0793
29.1711
19.2261
7.74894
-4.65021
-17.0312
-30.1987
-43.6597
-57.0409
-70.4818
-83.782
-96.874
-109.81
-122.517
-134.976
-147.149
-158.942
-170.239
-180.885
-190.689
-199.436
-206.883
-212.819
-216.968
-219.188
-219.416
-217.556
-213.478
-207.106
-198.409
-187.397
-174.125
-158.667
-141.121
-121.582
-100.174
-76.969
-52.3989
-26.6472
-3.0567
38.3645
47.0582
56.4012
65.9714
74.8331
83.1292
90.5199
96.5115
101.043
104.305
106.441
107.63
108.069
107.893
107.198
106.035
104.419
102.345
99.7829
96.6924
93.0306
88.7568
83.8372
78.2947
72.2865
66.0366
59.7348
53.5584
47.699
42.3525
37.71
33.9492
31.232
29.6989
29.4892
30.7477
33.4796
37.7231
42.1179
26.9213
17.463
6.55382
-5.21519
-16.9416
-29.3974
-42.108
-54.7168
-67.3599
-79.8463
-92.1143
-104.218
-116.094
-127.731
-139.098
-150.119
-160.693
-170.688
-179.931
-188.231
-195.366
-201.141
-205.3
-207.696
-208.264
-206.912
-203.497
-197.913
-190.102
-180.044
-167.764
-153.32
-136.791
-118.266
-97.8773
-75.7283
-52.2594
-27.7942
-5.35184
35.6758
43.9577
52.8711
62.0156
70.4931
78.4433
85.5453
91.3195
95.705
98.8867
101.001
102.22
102.734
102.675
102.138
101.175
99.8035
98.0205
95.7994
93.1004
89.879
86.0893
81.6886
76.6841
71.2096
65.4676
59.6288
53.8552
48.3259
43.2287
38.7501
35.068
32.3466
30.7293
30.3521
31.3477
33.708
37.3986
41.1818
24.8125
15.8125
5.43781
-5.73905
-16.8519
-28.6415
-40.6508
-52.539
-64.4387
-76.1678
-87.6705
-99.0009
-110.103
-120.972
-131.586
-141.88
-151.768
-161.136
-169.83
-177.679
-184.481
-190.056
-194.17
-196.675
-197.506
-196.575
-193.735
-188.86
-181.865
-172.704
-161.38
-147.923
-132.4
-114.895
-95.5351
-74.4588
-52.1036
-28.906
-7.59015
33.1533
41.0467
49.5542
58.2949
66.4082
74.0292
80.8542
86.419
90.6616
93.7615
95.8489
97.087
97.6623
97.7025
97.3017
96.5115
95.3538
93.8269
91.9077
89.5581
86.7339
83.3856
79.4645
74.9644
69.9989
64.748
59.3648
53.9951
48.8049
43.9712
39.6747
36.0905
33.3829
31.6967
31.1632
31.905
33.9025
37.0656
40.2746
22.8393
14.2712
4.40127
-6.21821
-16.7546
-27.919
-39.2717
-50.4865
-61.6925
-72.7155
-83.5059
-94.1166
-104.498
-114.651
-124.561
-134.171
-143.41
-152.177
-160.338
-167.738
-174.195
-179.539
-183.565
-186.12
-187.146
-186.561
-184.218
-179.975
-173.726
-165.407
-154.993
-142.496
-127.964
-111.473
-93.1523
-73.1571
-51.9243
-29.9727
-9.75834
30.7891
38.3156
46.4386
54.7968
62.5635
69.8711
76.4305
81.7928
85.8959
88.9134
90.9691
92.2188
92.8435
92.9679
92.6844
92.045
91.074
89.7721
88.1195
86.0808
83.613
80.6656
77.1853
73.1558
68.6713
63.8914
58.9519
53.9833
49.1367
44.5777
40.4786
37.0099
34.3334
32.5938
31.9169
32.4157
34.0627
36.7261
39.3991
20.9958
12.8362
3.44246
-6.6503
-16.6448
-27.2214
-37.9578
-48.543
-59.1001
-69.4646
-79.5907
-89.5317
-99.2419
-108.727
-117.977
-126.946
-135.571
-143.767
-151.411
-158.369
-164.475
-169.568
-173.471
-176.029
-177.191
-176.886
-174.966
-171.283
-165.714
-158.176
-148.626
-137.056
-123.496
-108.012
-90.7301
-71.8215
-51.7143
-30.982
-11.8435
28.5753
35.7549
43.5138
51.5081
58.9451
65.9537
72.2582
77.4252
81.3924
84.3275
86.3483
87.6033
88.2682
88.4639
88.2813
87.7731
86.965
85.8606
84.4432
82.6806
80.5315
77.9467
74.8696
71.2759
67.2429
62.9114
58.4006
53.826
49.3239
45.047
41.1579
37.8199
35.1911
33.4137
32.6074
32.8766
34.1878
36.3817
38.5573
19.2759
11.5031
2.56014
-7.03485
-16.5186
-26.5422
-36.6993
-46.6936
-56.6435
-66.3927
-75.8981
-85.2143
-94.2992
-103.161
-111.795
-120.162
-128.209
-135.86
-143.01
-149.535
-155.287
-160.118
-163.869
-166.395
-167.644
-167.558
-165.997
-162.805
-157.851
-151.038
-142.304
-131.623
-119.009
-104.52
-88.2729
-70.4492
-51.4637
-31.9243
-13.8327
26.5047
33.3553
40.7682
48.4161
55.5391
62.2623
68.3228
73.3012
77.1362
79.9895
81.973
83.2281
83.9252
84.182
84.0861
83.692
83.0262
82.0951
80.885
79.367
77.5028
75.244
72.5336
69.3413
65.7296
61.8218
57.722
53.5309
49.3703
45.3795
41.7096
38.516
35.9499
34.1502
33.2294
33.2841
34.2775
36.0335
37.7508
17.6741
10.2676
1.75211
-7.37204
-16.3736
-25.8753
-35.4873
-44.9264
-54.3069
-63.4799
-72.4059
-81.1384
-89.6395
-97.9195
-105.977
-113.78
-121.283
-128.419
-135.096
-141.202
-146.604
-151.164
-154.745
-157.205
-158.502
-158.586
-157.324
-154.562
-150.162
-144.015
-136.046
-126.215
-114.52
-101.006
-85.7846
-69.0382
-51.1668
-32.7887
-15.7147
24.5698
31.1078
38.1922
45.5104
52.3335
58.7838
64.6103
69.4069
73.1137
75.8861
77.8305
79.0817
79.804
80.1128
80.0923
79.7974
79.2564
78.4769
77.4492
76.1476
74.5367
72.5703
70.1922
67.3678
64.1469
60.6367
56.9276
53.1065
49.281
45.5768
42.1329
39.0942
36.6047
34.7975
33.7782
33.6353
34.3309
35.6819
36.9799
16.1842
9.1256
1.01547
-7.66228
-16.2081
-25.2173
-34.3155
-43.2325
-52.0784
-60.7118
-69.0954
-77.2824
-85.2383
-92.9746
-100.494
-107.768
-114.76
-121.41
-127.635
-133.337
-138.396
-142.683
-146.08
-148.452
-149.762
-149.972
-148.958
-146.569
-142.664
-137.128
-129.875
-120.85
-110.042
-97.481
-83.2688
-67.5873
-50.8158
-33.567
-17.48
22.7635
29.0045
35.7759
42.7799
49.3166
55.5059
61.1075
65.7297
69.3121
72.0049
73.9089
75.1527
75.895
76.2475
76.2923
76.0839
75.6519
75.0056
74.1382
73.0277
71.6417
69.9368
67.8585
65.3694
62.5089
59.3696
56.0291
52.5621
49.0624
45.642
42.4273
39.5522
37.1514
35.3511
34.2494
33.9273
34.3472
35.3272
36.2446
14.8006
8.07243
0.347455
-7.90691
-16.0215
-24.565
-33.1784
-41.6043
-49.9479
-58.0746
-65.9505
-73.6269
-81.073
-88.3012
-95.3172
-102.097
-108.608
-114.798
-120.595
-125.911
-130.635
-134.651
-137.854
-140.12
-141.418
-141.718
-140.908
-138.841
-135.377
-130.398
-123.81
-115.549
-105.589
-93.9538
-80.7304
-66.0956
-50.4045
-34.251
-19.1203
21.0786
27.0374
33.5106
40.2141
46.4775
52.417
57.8028
62.2569
65.7188
68.3335
70.1967
71.4306
72.1882
72.5775
72.6787
72.5459
72.209
71.6796
70.9531
70.011
68.8242
67.3523
65.5436
63.3591
60.829
58.0335
55.0385
51.9074
48.7215
45.5793
42.5945
39.8889
37.5872
35.8072
34.6396
34.1576
34.3258
34.9688
35.5436
13.5175
7.10361
-0.255071
-8.10743
-15.8135
-23.9163
-32.0717
-40.0341
-47.9052
-55.556
-62.9562
-70.1547
-77.1241
-83.8779
-90.4228
-96.7392
-102.799
-108.558
-113.949
-118.895
-123.296
-127.046
-130.051
-132.199
-133.464
-133.823
-133.177
-131.387
-128.315
-123.842
-117.87
-110.327
-101.178
-90.435
-78.1746
-64.562
-49.9277
-34.8336
-20.6274
19.5087
25.1986
31.3874
37.8041
43.8059
49.5061
54.6851
58.9768
62.3224
64.8609
66.6827
67.9042
68.6731
69.0939
69.2438
69.1768
68.9233
68.4959
67.8934
67.0995
66.0888
64.8243
63.2568
61.3477
59.1193
56.6403
53.9671
51.1526
48.2663
45.3942
42.6369
40.1045
37.9102
36.1629
34.9457
34.324
34.2655
34.6058
34.8752
12.3294
6.21471
-0.795387
-8.26564
-15.5842
-23.2698
-30.9919
-38.5175
-45.9428
-53.1465
-60.1
-66.8509
-73.3739
-79.6839
-85.7888
-91.6718
-97.3091
-102.662
-107.67
-112.264
-116.355
-119.845
-122.651
-124.673
-125.888
-126.284
-125.77
-124.215
-121.49
-117.475
-112.07
-105.2
-96.8209
-86.9348
-75.6063
-62.9877
-49.3804
-35.3091
-21.9958
18.0472
23.4808
29.3981
35.5407
41.2922
46.7633
51.7431
55.8789
59.1118
61.5756
63.3561
64.5636
65.3403
65.7875
65.9797
65.9701
65.7892
65.4516
64.9574
64.294
63.4386
62.3578
61.0059
59.3447
57.3906
55.2019
52.8262
50.3078
47.7053
45.0929
42.5586
40.2004
38.1202
36.4166
35.1657
34.4248
34.1654
34.237
34.237
11.2309
5.40124
-1.2768
-8.38367
-15.3345
-22.6245
-29.9369
-37.0496
-44.0553
-50.8381
-57.3721
-63.7034
-69.8088
-75.7033
-81.3963
-86.8737
-92.1151
-97.0858
-101.733
-105.994
-109.789
-113.028
-115.638
-117.529
-118.683
-119.095
-118.685
-117.332
-114.912
-111.31
-106.427
-100.184
-92.5314
-83.4632
-73.0313
-61.3732
-48.7604
-35.6737
-23.2208
16.688
21.8771
27.535
33.4153
38.9272
44.1785
48.9671
52.9527
56.0767
58.4676
60.2069
61.3988
62.1807
62.6501
62.8787
62.9188
62.8017
62.5425
62.1433
61.5942
60.8755
59.9574
58.7973
57.3585
55.6525
53.7285
51.6265
49.383
47.0472
44.6822
42.3644
40.1794
38.2179
36.568
35.2984
34.4587
34.0245
33.8608
33.6259
10.2168
4.65896
-1.70271
-8.46367
-15.0651
-21.9799
-28.9041
-35.6267
-42.2367
-48.6231
-54.763
-60.7004
-66.4143
-71.9204
-77.2284
-82.3265
-87.197
-91.8099
-96.118
-100.065
-103.577
-106.576
-108.993
-110.751
-111.837
-112.25
-111.921
-110.74
-108.588
-105.357
-100.952
-95.2914
-88.3217
-80.0296
-70.4558
-59.7204
-48.0658
-35.9239
-24.2993
15.4251
20.3808
25.7907
31.4201
36.7025
41.7428
46.3476
50.1882
53.2071
55.5271
57.2255
58.4008
59.1852
59.6727
59.9328
60.0163
59.9548
59.764
59.4479
58.999
58.4004
57.6256
56.6359
55.3962
53.9134
52.2296
50.3779
48.3882
46.3013
44.1702
42.0601
40.0454
38.2053
36.6176
35.3433
34.425
33.8419
33.4751
33.0382
9.28217
3.98362
-2.07644
-8.50805
-14.7775
-21.3362
-27.8926
-34.2463
-40.4824
-46.4956
-52.2646
-57.8326
-63.1795
-68.3218
-73.2695
-78.013
-82.5368
-86.8145
-90.804
-94.4546
-97.7004
-100.469
-102.699
-104.327
-105.339
-105.741
-105.475
-104.438
-102.522
-99.6258
-95.6561
-90.5336
-84.2024
-76.6434
-67.8855
-58.0322
-47.2953
-36.0585
-25.2297
14.2529
18.9855
24.1584
29.5474
34.6097
39.4476
43.8756
47.5767
50.4938
52.7445
54.4024
55.5601
56.345
56.8476
57.1343
57.2555
57.2423
57.1113
56.8677
56.5064
56.0131
55.3645
54.5255
53.4631
52.1807
50.7137
49.0898
47.3329
45.4764
43.5645
41.6524
39.8033
38.0857
36.567
35.3011
34.3234
33.6168
33.0779
32.4702
8.42213
3.37116
-2.40125
-8.51894
-14.4728
-20.6932
-26.9011
-32.9057
-38.7884
-44.4499
-49.8703
-55.0912
-60.0943
-64.8958
-69.5067
-73.9184
-78.1181
-82.0822
-85.7732
-89.1452
-92.1396
-94.6897
-96.7419
-98.2401
-99.1759
-99.5596
-99.3401
-98.4259
-96.7176
-94.1207
-90.5472
-85.9205
-80.1839
-73.3128
-65.3268
-56.312
-46.4503
-36.077
-26.0117
13.1657
17.6855
22.6311
27.7899
32.6414
37.2848
41.5426
45.1093
47.9278
50.1113
51.7288
52.8682
53.6516
54.1661
54.4757
54.6295
54.6583
54.5792
54.3989
54.1139
53.7129
53.1749
52.4688
51.5639
50.4606
49.1886
47.7708
46.2261
44.5817
42.8739
41.1485
39.459
37.8633
36.4192
35.1731
34.1543
33.3485
32.667
31.9176
7.63211
2.81739
-2.68031
-8.4988
-14.1525
-20.0513
-25.9286
-31.6027
-37.152
-42.4817
-47.574
-52.4687
-57.1493
-61.6321
-65.9278
-70.0294
-73.9262
-77.5973
-81.009
-84.12
-86.8775
-89.2216
-91.1039
-92.4771
-93.3363
-93.6952
-93.5107
-92.7007
-91.1745
-88.8456
-85.6317
-81.4602
-76.2744
-70.0461
-62.7861
-54.5638
-45.5327
-35.9811
-26.6468
12.1586
16.4746
21.2028
26.1408
30.7901
35.2467
39.3408
42.7776
45.501
47.6189
49.1965
50.3168
51.097
51.6208
51.9496
52.1314
52.1966
52.1626
52.0372
51.8188
51.498
51.057
50.468
49.7022
48.7585
47.661
46.4286
45.0764
43.626
42.1067
40.5562
39.0189
37.5433
36.1778
34.9616
33.9186
33.0367
32.2402
31.3762
6.90763
2.31868
-2.91688
-8.45003
-13.818
-19.4113
-24.9747
-30.336
-35.5698
-40.5867
-45.3699
-49.9583
-54.3365
-58.5206
-62.5216
-66.3336
-69.9477
-73.3452
-76.4959
-79.3629
-81.8983
-84.0487
-85.7705
-87.024
-87.8074
-88.1377
-87.9787
-87.2571
-85.8913
-83.8021
-80.914
-77.1586
-72.481
-66.8504
-60.2695
-52.7924
-44.5458
-35.7734
-27.1374
11.2265
15.3477
19.8677
24.594
29.049
33.3262
37.2626
40.574
43.2053
45.2591
46.7972
47.8979
48.6733
49.2041
49.5489
49.7546
49.8512
49.8561
49.7783
49.6176
49.3667
49.0103
48.5239
47.8809
47.0785
46.1366
45.0705
43.8919
42.6177
41.2715
39.8836
38.4904
37.1316
35.8472
34.6697
33.6179
32.681
31.7953
30.8419
6.24449
1.87124
-3.11393
-8.37496
-13.4711
-18.7738
-24.0392
-29.1043
-34.0398
-38.7614
-43.2539
-47.5543
-51.6487
-55.5532
-59.2786
-62.82
-66.1702
-69.3125
-72.2199
-74.8591
-77.1872
-79.156
-80.7268
-81.8666
-82.5767
-82.8764
-82.7356
-82.0892
-80.8646
-78.9897
-76.3962
-73.0203
-68.8096
-63.7318
-57.783
-51.0032
-43.4939
-35.4578
-27.4871
10.3648
14.2995
18.62
23.1432
27.4118
31.5162
35.3007
38.4912
41.0331
43.0245
44.5236
45.6041
46.3733
46.9088
47.2667
47.4926
47.616
47.6546
47.6179
47.507
47.3166
47.0338
46.637
46.1021
45.4246
44.6207
43.7029
42.6799
41.565
40.3767
39.139
37.8811
36.635
35.433
34.3013
33.2542
32.2818
31.3304
30.3105
5.63856
1.47158
-3.27443
-8.27586
-13.113
-18.1395
-23.122
-27.9063
-32.56
-37.0028
-41.2214
-45.2511
-49.0795
-52.7219
-56.1897
-59.4787
-62.5827
-65.4871
-68.168
-70.595
-72.7297
-74.5289
-75.9588
-76.9917
-77.6317
-77.8999
-77.7719
-77.1899
-76.0896
-74.4065
-72.0787
-69.048
-65.2648
-60.6961
-55.3325
-49.2017
-42.3824
-35.0394
-27.7013
9.56887
13.3251
17.4543
21.7827
25.8721
29.8104
33.4485
36.5222
38.9775
40.9079
42.3683
43.428
44.1898
44.728
45.0964
45.3392
45.4855
45.5528
45.5513
45.4834
45.3452
45.1261
44.8073
44.367
43.7995
43.1176
42.3313
41.4474
40.4758
39.4305
38.3306
37.1988
36.0605
34.9409
33.8608
32.8302
31.8397
30.844
29.7781
5.08611
1.11621
-3.40114
-8.155
-12.7454
-17.5091
-22.2232
-26.7415
-31.1283
-35.3081
-39.2686
-43.044
-46.6226
-50.0199
-53.2468
-56.3002
-59.175
-61.8581
-64.328
-66.5579
-68.5128
-70.1545
-71.4528
-72.3859
-72.9596
-73.1966
-73.0774
-72.5511
-71.5605
-70.0489
-67.9607
-65.243
-61.8496
-57.7477
-52.9236
-47.3939
-41.2172
-34.5246
-27.7859
8.83452
12.4198
16.3656
20.507
24.4244
28.2028
31.6997
34.6603
37.0315
38.9025
40.3246
41.3629
42.1161
42.6551
43.0317
43.2884
43.4539
43.5456
43.5742
43.5431
43.4499
43.2857
43.0346
42.6767
42.2056
41.6311
40.9612
40.2008
39.3572
38.441
37.4666
36.4517
35.4154
34.3775
33.3532
32.3491
31.3558
30.3345
29.2415
4.58339
0.802011
-3.49691
-8.01442
-12.3699
-16.8837
-21.3427
-25.6087
-29.7433
-33.6748
-37.3923
-40.9285
-44.273
-47.4407
-50.4426
-53.2761
-55.9374
-58.4147
-60.6889
-62.7356
-64.5238
-66.0195
-67.1961
-68.0365
-68.5483
-68.7551
-68.6417
-68.1637
-67.2705
-65.9122
-64.0397
-61.6053
-58.5661
-54.8905
-50.5613
-45.5858
-40.0051
-33.9202
-27.7479
8.15772
11.5793
15.3492
19.3109
23.0629
26.6874
30.048
32.8994
35.1889
37.0016
38.3858
39.4024
40.1458
40.684
41.0664
41.3344
41.5159
41.6281
41.6821
41.6824
41.6275
41.5106
41.318
41.0318
40.6448
40.1644
39.5969
38.9458
38.2161
37.4157
36.5551
35.6477
34.7076
33.7493
32.7839
31.8144
30.8314
29.8013
28.6974
4.12693
0.525867
-3.56433
-7.85624
-11.9879
-16.2637
-20.4806
-24.5077
-28.4036
-32.1007
-35.5892
-38.9005
-42.0255
-44.9784
-47.7702
-50.3988
-52.8613
-55.1474
-57.2399
-59.117
-60.7511
-62.1118
-63.1761
-63.9307
-64.3851
-64.5635
-64.4541
-64.0183
-63.2117
-61.9906
-60.3121
-58.1332
-55.4152
-52.1273
-48.2502
-43.7835
-38.7532
-33.2342
-27.595
7.53459
10.7992
14.4005
18.1897
21.7826
25.2589
28.4879
31.2335
33.4436
35.1994
36.5459
37.5403
38.2728
38.8086
39.1948
39.4718
39.6663
39.7955
39.871
39.8977
39.8755
39.799
39.6566
39.4323
39.1185
38.7203
38.2426
37.6876
37.0589
36.3618
35.6039
34.7948
33.9446
33.0635
32.1585
31.2302
30.2684
29.2438