/*--------------------------------*- C++ -*----------------------------------*\
  =========                 |
  \\      /  F ield         | OpenFOAM: The Open Source CFD Toolbox
   \\    /   O peration     | Website:  https://openfoam.org
    \\  /    A nd           | Version:  7
     \\/     M anipulation  |
\*---------------------------------------------------------------------------*/
FoamFile
{
    version     2.0;
    format      ascii;
    class       surfaceScalarField;
    location    "313";
    object      phi;
}
// * * * * * * * * * * * * * * * * * * * * * * * * * * * * * * * * * * * * * //

dimensions      [0 3 -1 0 0 0 0];

internalField   nonuniform List<scalar> 
21254
(
-0.241983
0.261493
-0.0195104
0.283456
-0.0219624
0.302251
-0.0187949
0.318992
-0.016741
0.334823
-0.0158313
0.347417
-0.0125945
0.357325
-0.00990796
0.365356
-0.00803046
0.370588
-0.0052318
0.374096
-0.00350806
0.376133
-0.00203759
0.376528
-0.000394779
0.37564
0.00088807
0.373434
0.00220571
0.369852
0.00358208
0.365186
0.00466626
0.359258
0.0059279
0.352176
0.00708188
0.343805
0.00837107
0.334387
0.00941838
0.323605
0.010782
0.312041
0.0115639
0.299968
0.0120731
0.288696
0.0112719
0.279425
0.00927083
0.271469
0.0079562
0.263698
0.00777066
0.255797
0.0079012
0.247432
0.00836553
0.238515
0.008917
0.229021
0.0094939
0.218942
0.010079
0.208213
0.010729
0.196595
0.0116175
0.183562
0.0130329
0.168055
0.0155068
0.147718
0.0203371
0.117119
0.0305997
0.0951937
0.0219258
-0.218884
-0.0230994
-0.194991
-0.0238925
-0.165539
-0.0294525
-0.133154
-0.0323844
-0.0989533
-0.0342009
-0.0635318
-0.0354215
-0.0284666
-0.0350652
0.00411838
-0.032585
0.0336312
-0.0295129
0.0598004
-0.0261692
0.0821856
-0.0223851
0.101207
-0.0190213
0.117214
-0.0160074
0.130573
-0.0133582
0.142
-0.0114279
0.151833
-0.00983255
0.160552
-0.00871891
0.168395
-0.0078435
0.175677
-0.00728158
0.182523
-0.00684572
0.189105
-0.00658231
0.195416
-0.00631136
0.201389
-0.00597307
0.206399
-0.0050097
0.210259
-0.00385958
0.213246
-0.00298731
0.215358
-0.00211227
0.216712
-0.00135393
0.217322
-0.000609696
0.21713
0.000191653
0.216041
0.00108951
0.214189
0.00185218
0.211699
0.00248984
0.208634
0.00306472
0.204854
0.00378036
0.199932
0.00492176
0.192687
0.00724523
0.177775
0.0149119
0.15504
0.0227342
-0.22084
0.242415
-0.0410859
0.264472
-0.0440196
0.287489
-0.0418116
0.30895
-0.0382014
0.329877
-0.0367584
0.349252
-0.03197
0.366677
-0.0273332
0.382414
-0.0237671
0.396055
-0.0188727
0.407661
-0.0151142
0.417253
-0.0116291
0.424972
-0.00811386
0.431131
-0.00527102
0.43588
-0.00254315
0.4391
0.000361923
0.440474
0.00329238
0.439925
0.00647623
0.437581
0.00942624
0.432941
0.0130114
0.4263
0.0160586
0.417264
0.0198181
0.406132
0.0226966
0.392901
0.0253031
0.378219
0.0259548
0.363354
0.0241358
0.348753
0.0225569
0.334513
0.0220106
0.320855
0.0215595
0.307598
0.0216221
0.294598
0.021917
0.281648
0.0224444
0.268588
0.023139
0.255169
0.0241473
0.241181
0.0256057
0.226228
0.0279858
0.209316
0.0324188
0.189174
0.0404794
0.156919
0.0628549
0.113448
0.0653972
-0.19878
-0.0451588
-0.175144
-0.0475291
-0.147465
-0.0571313
-0.118174
-0.0616752
-0.0870543
-0.0653209
-0.0545389
-0.0679369
-0.0221572
-0.0674469
0.00884876
-0.0635909
0.0373506
-0.0580147
0.0627248
-0.0515435
0.0848806
-0.0445409
0.104119
-0.0382595
0.120882
-0.0327702
0.135395
-0.0278721
0.148099
-0.0241311
0.159292
-0.0210259
0.169267
-0.0186938
0.178332
-0.0169083
0.186741
-0.0156908
0.194608
-0.0147129
0.202093
-0.0140675
0.209268
-0.0134857
0.216058
-0.0127637
0.222007
-0.0109585
0.226839
-0.00869184
0.230759
-0.00690686
0.233762
-0.00511546
0.2359
-0.00349216
0.23722
-0.00192954
0.237869
-0.000457833
0.23795
0.00100894
0.237402
0.00239988
0.236097
0.00379532
0.233989
0.0051724
0.231022
0.00674728
0.226952
0.00899249
0.221758
0.0124392
0.210831
0.0258382
0.189724
0.043841
-0.214279
0.236021
-0.062828
0.257915
-0.0659138
0.281538
-0.0654342
0.303133
-0.0597966
0.323659
-0.0572846
0.343303
-0.051614
0.360772
-0.0448019
0.376478
-0.039473
0.389977
-0.0323721
0.401558
-0.0266951
0.411251
-0.0213219
0.419219
-0.0160821
0.425293
-0.0113449
0.429953
-0.00720252
0.432947
-0.00263218
0.435017
0.00122242
0.435849
0.00564369
0.435792
0.00948348
0.434513
0.0142902
0.431952
0.0186202
0.42799
0.0237792
0.422459
0.0282284
0.41533
0.0324323
0.406699
0.0345854
0.397089
0.0337463
0.386562
0.0330837
0.37501
0.0335627
0.362579
0.0339897
0.349444
0.0347572
0.335702
0.0356592
0.3215
0.0366461
0.306871
0.0377683
0.291757
0.0392612
0.275986
0.0413769
0.259169
0.0448023
0.240313
0.0512747
0.218241
0.0625521
0.185272
0.0958241
0.137694
0.112976
-0.192394
-0.0670435
-0.168397
-0.0715259
-0.139678
-0.0858505
-0.10978
-0.0915739
-0.0785228
-0.0965777
-0.0460591
-0.100401
-0.0140054
-0.0995006
0.0159686
-0.0935649
0.043534
-0.08558
0.0685155
-0.0765249
0.0906148
-0.0666402
0.109989
-0.0576341
0.126997
-0.0497773
0.14191
-0.0427855
0.155041
-0.0372618
0.166724
-0.0327096
0.177227
-0.0291965
0.186815
-0.0264964
0.195697
-0.0245729
0.204038
-0.0230536
0.212023
-0.0220521
0.219665
-0.0211283
0.226874
-0.019973
0.23335
-0.0174337
0.238805
-0.0141467
0.243341
-0.0114434
0.247017
-0.00879149
0.249864
-0.00633934
0.251947
-0.00401215
0.253259
-0.00176942
0.25387
0.000397139
0.253776
0.00249391
0.252999
0.00457263
0.251466
0.00670565
0.249072
0.00914106
0.245433
0.0126318
0.240118
0.0177537
0.229431
0.0365251
0.209404
0.0638681
-0.206674
0.229428
-0.0855821
0.252237
-0.0887233
0.27731
-0.0905071
0.300188
-0.0826743
0.322351
-0.0794474
0.343582
-0.072845
0.363063
-0.0642831
0.380608
-0.0570175
0.396431
-0.0481954
0.410309
-0.0405733
0.422359
-0.0333717
0.432578
-0.026301
0.440999
-0.0197657
0.447658
-0.0138625
0.452878
-0.00785184
0.456285
-0.00218483
0.458027
0.0039022
0.457859
0.00965096
0.45611
0.0160394
0.452657
0.0220734
0.447647
0.0287887
0.441331
0.0345448
0.433836
0.0399273
0.425668
0.0427534
0.417258
0.0421567
0.40866
0.041681
0.399504
0.0427191
0.389639
0.043855
0.378885
0.0455112
0.367064
0.0474796
0.354174
0.0495369
0.340202
0.0517399
0.325152
0.0543111
0.308902
0.0576274
0.291198
0.0625061
0.271096
0.0713769
0.247343
0.086305
0.213064
0.130103
0.164856
0.161185
-0.184202
-0.0895156
-0.160093
-0.0956344
-0.13084
-0.115104
-0.100799
-0.121614
-0.0694703
-0.127907
-0.0368969
-0.132974
-0.00492065
-0.131477
0.024679
-0.123165
0.0517334
-0.112634
0.0763127
-0.101104
0.0980771
-0.0884046
0.117264
-0.0768215
0.134284
-0.0667969
0.149375
-0.0578766
0.162854
-0.0507407
0.174945
-0.0448008
0.185938
-0.040189
0.196011
-0.0365692
0.205394
-0.0339563
0.214227
-0.0318868
0.222622
-0.0304471
0.230645
-0.0291512
0.238237
-0.0275645
0.245078
-0.0242756
0.250929
-0.0199975
0.255849
-0.0163634
0.259883
-0.0128251
0.263079
-0.00953524
0.265469
-0.00640264
0.267111
-0.00341133
0.268033
-0.000524288
0.268259
0.00226777
0.267788
0.00504333
0.266605
0.00788858
0.26459
0.0111564
0.261362
0.0158594
0.256328
0.0227877
0.24614
0.0467131
0.226471
0.0835369
-0.202555
0.226125
-0.109153
0.24982
-0.112418
0.276312
-0.116999
0.29996
-0.106323
0.323153
-0.10264
0.345493
-0.0951851
0.365881
-0.0846714
0.384419
-0.0755556
0.401409
-0.0651849
0.416191
-0.055356
0.429161
-0.0463412
0.440254
-0.0373945
0.44975
-0.0292615
0.457315
-0.021427
0.463128
-0.0136648
0.467191
-0.00624816
0.469662
0.00143078
0.470581
0.00873233
0.469701
0.0169197
0.467286
0.0244885
0.463189
0.0328849
0.457552
0.0401827
0.450609
0.0468703
0.442758
0.0506043
0.434574
0.0503403
0.426265
0.0499903
0.417684
0.0513004
0.408766
0.0527727
0.399369
0.054908
0.389324
0.0575242
0.378383
0.0604779
0.366318
0.0638057
0.352912
0.0677163
0.33788
0.07266
0.320811
0.079575
0.300827
0.0913603
0.276499
0.110633
0.241507
0.165095
0.193213
0.20948
-0.17904
-0.11303
-0.154227
-0.120448
-0.123733
-0.145598
-0.0928654
-0.152482
-0.0608304
-0.159942
-0.0276442
-0.16616
0.00475279
-0.163874
0.0344047
-0.152816
0.0612769
-0.139507
0.0856001
-0.125427
0.107074
-0.109879
0.126036
-0.0957834
0.142979
-0.08374
0.158114
-0.0730111
0.171752
-0.0643791
0.184156
-0.0572044
0.1955
-0.0515336
0.205969
-0.0470374
0.215753
-0.0437412
0.224993
-0.0411264
0.233781
-0.0392347
0.242157
-0.0375271
0.250086
-0.0354938
0.257295
-0.0314842
0.263522
-0.0262253
0.268801
-0.021642
0.273163
-0.0171871
0.27666
-0.0130326
0.279321
-0.00906345
0.281178
-0.00526821
0.282271
-0.00161747
0.282654
0.00188484
0.28232
0.00537709
0.281232
0.00897727
0.279335
0.0130529
0.27624
0.018955
0.271338
0.0276888
0.261695
0.0563567
0.242695
0.102537
-0.199229
0.223818
-0.133741
0.248842
-0.137442
0.276715
-0.144871
0.301576
-0.131184
0.32579
-0.126854
0.349507
-0.118903
0.370867
-0.106031
0.390692
-0.0953807
0.40867
-0.0831631
0.424686
-0.0713718
0.438969
-0.0606239
0.451328
-0.049754
0.461988
-0.0399207
0.470923
-0.0303625
0.477994
-0.0207354
0.483516
-0.0117702
0.487108
-0.00216169
0.488866
0.00697487
0.488898
0.0168874
0.487029
0.0263578
0.48331
0.0366036
0.477966
0.0455265
0.471151
0.0536859
0.463286
0.0584693
0.454887
0.0587387
0.446219
0.0586579
0.437237
0.0602825
0.427955
0.0620547
0.418377
0.0644862
0.408431
0.0674704
0.398045
0.0708646
0.386985
0.074865
0.374982
0.0797192
0.361606
0.0860364
0.346241
0.0949399
0.327702
0.1099
0.304371
0.133964
0.270013
0.199453
0.222233
0.25726
-0.174748
-0.137511
-0.149118
-0.146078
-0.117316
-0.177399
-0.0853101
-0.184488
-0.0522783
-0.192973
-0.0181653
-0.200273
0.0149372
-0.196976
0.0449283
-0.182808
0.0718953
-0.166474
0.0961439
-0.149676
0.117437
-0.131172
0.136179
-0.114525
0.152966
-0.100528
0.168056
-0.0881007
0.181752
-0.0780754
0.194312
-0.0697638
0.205894
-0.063116
0.21669
-0.0578337
0.226826
-0.0538771
0.236429
-0.050729
0.245589
-0.0483948
0.254328
-0.0462657
0.262591
-0.0437574
0.270195
-0.0390876
0.27681
-0.0328409
0.282429
-0.0272607
0.287135
-0.0218931
0.290923
-0.0168211
0.293842
-0.0119819
0.29592
-0.00734608
0.297195
-0.00289295
0.297694
0.00138596
0.297422
0.00564869
0.296395
0.010004
0.294464
0.0149846
0.291334
0.0220852
0.286314
0.0327088
0.276955
0.0657149
0.258662
0.12083
-0.197211
0.22313
-0.15966
0.249192
-0.163504
0.278636
-0.174315
0.304777
-0.157325
0.330252
-0.152329
0.355048
-0.143699
0.377586
-0.128569
0.398265
-0.11606
0.417299
-0.102197
0.43426
-0.088333
0.449379
-0.0757433
0.462798
-0.0631722
0.474379
-0.0515022
0.484187
-0.0401707
0.492285
-0.0288327
0.49849
-0.017976
0.502959
-0.00663057
0.505594
0.00433979
0.506419
0.0160626
0.50537
0.027407
0.502487
0.0394863
0.497834
0.0501799
0.491735
0.0597843
0.484376
0.0658289
0.476265
0.0668492
0.467642
0.067281
0.458513
0.0694114
0.448913
0.0716554
0.438926
0.0744729
0.428521
0.0778755
0.417706
0.0816799
0.406437
0.0861331
0.394586
0.0915703
0.381819
0.098804
0.367628
0.109131
0.350807
0.126721
0.329524
0.155248
0.297488
0.231488
0.251251
0.303497
-0.171521
-0.163202
-0.144786
-0.172813
-0.111537
-0.210648
-0.0782234
-0.217802
-0.043993
-0.227204
-0.0086401
-0.235626
0.0254304
-0.231047
0.0560759
-0.213453
0.0833884
-0.193786
0.107789
-0.174077
0.129007
-0.15239
0.147596
-0.133114
0.164232
-0.117164
0.179211
-0.10308
0.192871
-0.091735
0.205495
-0.0823878
0.21725
-0.0748712
0.228277
-0.0688606
0.238707
-0.0643075
0.248632
-0.0606539
0.258121
-0.057884
0.267188
-0.0553326
0.275809
-0.052378
0.283738
-0.0470167
0.290746
-0.0398492
0.296756
-0.0332704
0.301787
-0.0269245
0.30589
-0.0209237
0.309065
-0.0151572
0.311375
-0.00965559
0.312818
-0.00433643
0.313453
0.000751375
0.313285
0.0058162
0.312263
0.0110266
0.31033
0.016917
0.307106
0.0253097
0.301899
0.0379151
0.292621
0.0749938
0.274952
0.138498
-0.195922
0.223176
-0.186915
0.250674
-0.191001
0.281803
-0.205445
0.309146
-0.184668
0.335914
-0.179096
0.361965
-0.16975
0.385524
-0.152128
0.407421
-0.137957
0.427272
-0.122048
0.445172
-0.106233
0.461347
-0.0919178
0.475631
-0.0774559
0.488098
-0.0639696
0.498866
-0.0509393
0.507868
-0.0378343
0.515058
-0.0251655
0.520463
-0.0120356
0.524012
0.000790452
0.525618
0.0144566
0.525285
0.0277401
0.523098
0.0416728
0.51906
0.0542179
0.513412
0.065432
0.506509
0.0727319
0.498676
0.0746824
0.490172
0.075785
0.481055
0.078529
0.471327
0.0813831
0.461035
0.0847649
0.450242
0.088668
0.4389
0.0930219
0.427058
0.0979757
0.414623
0.104005
0.401499
0.111928
0.387295
0.123335
0.371165
0.142851
0.3516
0.174812
0.322792
0.260296
0.279308
0.346981
-0.169001
-0.190122
-0.141109
-0.200705
-0.106146
-0.245612
-0.0713127
-0.252635
-0.0356583
-0.262858
0.00106432
-0.272349
0.0363559
-0.266338
0.0678674
-0.244965
0.0957154
-0.221634
0.120407
-0.198768
0.141702
-0.173686
0.160209
-0.15162
0.176714
-0.133669
0.191564
-0.11793
0.205139
-0.10531
0.217782
-0.0950308
0.229609
-0.0866977
0.240797
-0.0800494
0.251444
-0.0749545
0.26164
-0.0708499
0.271414
-0.0676575
0.280807
-0.0647261
0.289756
-0.0613268
0.298053
-0.0553138
0.305432
-0.0472275
0.311808
-0.039647
0.317194
-0.0323106
0.321618
-0.0253475
0.325073
-0.0186117
0.327601
-0.0121836
0.329248
-0.00598348
0.330016
-1.68916e-05
0.329936
0.00589582
0.328962
0.0120003
0.326982
0.0188979
0.323665
0.0286267
0.318286
0.0432933
0.309005
0.0842749
0.291949
0.155555
-0.195483
0.224105
-0.215537
0.253051
-0.219947
0.28588
-0.238274
0.314616
-0.213403
0.342857
-0.207338
0.370269
-0.197163
0.395053
-0.176911
0.417837
-0.160742
0.438808
-0.143018
0.457546
-0.124971
0.474432
-0.108804
0.489538
-0.0925613
0.502874
-0.0773062
0.51445
-0.0625155
0.524268
-0.0476516
0.532348
-0.0332456
0.538556
-0.0182437
0.542847
-0.00350084
0.54521
0.0120934
0.545599
0.0273512
0.544094
0.0431777
0.540736
0.0575763
0.535693
0.0704752
0.529279
0.079146
0.521825
0.0821358
0.51354
0.0840707
0.504475
0.0875935
0.494705
0.091153
0.484292
0.0951785
0.473226
0.0997338
0.461519
0.104729
0.449173
0.110321
0.436136
0.117042
0.422291
0.125773
0.40742
0.138206
0.390883
0.159388
0.371798
0.193897
0.345805
0.286289
0.305519
0.387267
-0.167071
-0.218534
-0.137825
-0.229952
-0.101086
-0.28235
-0.0646942
-0.289027
-0.0273859
-0.300166
0.0109115
-0.310646
0.0476659
-0.303093
0.0802272
-0.277526
0.108797
-0.250204
0.133956
-0.223927
0.155449
-0.195178
0.17398
-0.170152
0.19041
-0.150099
0.205142
-0.132662
0.218614
-0.118782
0.231186
-0.107603
0.243043
-0.0985549
0.254319
-0.091326
0.26512
-0.0857552
0.275532
-0.0812623
0.285589
-0.077714
0.295253
-0.0743905
0.304509
-0.0705825
0.313159
-0.0639635
0.320927
-0.0549956
0.327657
-0.046377
0.3334
-0.0380538
0.338126
-0.0300739
0.341882
-0.0223675
0.344664
-0.0149655
0.346501
-0.00782031
0.347429
-0.000944347
0.347435
0.00588931
0.346505
0.01293
0.344523
0.0208801
0.341131
0.0320191
0.335564
0.0488597
0.326301
0.0935384
0.309847
0.172008
-0.195488
0.225725
-0.245774
0.256221
-0.250444
0.290947
-0.273
0.321141
-0.243597
0.350671
-0.236868
0.379561
-0.226052
0.405519
-0.202869
0.429448
-0.18467
0.451408
-0.164978
0.471028
-0.144592
0.488775
-0.12655
0.504761
-0.108548
0.518808
-0.0913529
0.531106
-0.0748138
0.541791
-0.0583364
0.55058
-0.0420347
0.55757
-0.0252329
0.562618
-0.00854904
0.565782
0.00892934
0.56696
0.0261728
0.566071
0.0440674
0.563364
0.0602829
0.558902
0.0749374
0.552993
0.0850547
0.545894
0.0892351
0.537778
0.0921865
0.528821
0.0965504
0.519068
0.100906
0.508515
0.105732
0.49727
0.110979
0.485283
0.116716
0.472531
0.123073
0.458977
0.130597
0.444498
0.140251
0.428871
0.153834
0.411476
0.176782
0.391781
0.213593
0.367286
0.310785
0.32977
0.424783
-0.165706
-0.248316
-0.134994
-0.260664
-0.0962944
-0.32105
-0.0580425
-0.327279
-0.0190532
-0.339156
0.0210801
-0.35078
0.0593635
-0.341376
0.0931653
-0.311328
0.122628
-0.279666
0.148425
-0.249725
0.170241
-0.216994
0.188869
-0.188781
0.205291
-0.16652
0.219932
-0.147303
0.233292
-0.132142
0.245785
-0.120095
0.257605
-0.110375
0.268907
-0.102628
0.27983
-0.0966786
0.290407
-0.0918391
0.300646
-0.0879533
0.310587
-0.0843311
0.320148
-0.0801433
0.329128
-0.0729437
0.337244
-0.0631123
0.344358
-0.053491
0.350434
-0.0441298
0.355505
-0.0351446
0.359545
-0.0264078
0.36258
-0.0180006
0.364644
-0.00988378
0.365716
-0.00201617
0.365843
0.00576237
0.36497
0.0138027
0.362968
0.0228815
0.359487
0.0355
0.3538
0.0545473
0.344577
0.102761
0.328702
0.187884
-0.196119
0.227926
-0.277581
0.260001
-0.282519
0.296658
-0.309656
0.328536
-0.275476
0.359686
-0.268018
0.390051
-0.256417
0.417156
-0.229975
0.442318
-0.209832
0.465317
-0.187977
0.485883
-0.165159
0.504424
-0.145091
0.521048
-0.125172
0.535897
-0.106202
0.549044
-0.0879602
0.56032
-0.0696129
0.569888
-0.0516024
0.577599
-0.0329443
0.583438
-0.0143879
0.587264
0.00510365
0.589113
0.0243232
0.588944
0.0442368
0.586817
0.06241
0.582936
0.0788189
0.577538
0.0904521
0.57084
0.0959332
0.56303
0.0999969
0.554193
0.105387
0.544411
0.110687
0.533811
0.116332
0.522349
0.122441
0.510091
0.128974
0.497009
0.136154
0.483022
0.144585
0.467992
0.155281
0.451662
0.170163
0.43346
0.194984
0.412705
0.234347
0.388523
0.334968
0.352836
0.460471
-0.164661
-0.279774
-0.132442
-0.292883
-0.0916667
-0.361825
-0.0514837
-0.367461
-0.0105296
-0.38011
0.0314694
-0.392779
0.0715163
-0.381423
0.106708
-0.34652
0.137237
-0.310195
0.163748
-0.276235
0.186027
-0.239273
0.204868
-0.207621
0.221356
-0.183009
0.23594
-0.161886
0.249202
-0.145404
0.261593
-0.132486
0.273346
-0.122128
0.28465
-0.113932
0.2956
-0.107629
0.306288
-0.102527
0.31673
-0.0983953
0.326893
-0.0944941
0.33671
-0.0899606
0.346019
-0.082253
0.354487
-0.0715801
0.361953
-0.0609571
0.368397
-0.0505733
0.37379
-0.040538
0.378146
-0.0307641
0.381444
-0.021298
0.383708
-0.0121478
0.384975
-0.00328295
0.38521
0.00552738
0.384402
0.0146103
0.382391
0.0248923
0.37886
0.0390313
0.373036
0.0603711
0.363871
0.111926
0.348634
0.203121
-0.197071
0.230679
-0.31119
0.264515
-0.316354
0.303211
-0.348353
0.336692
-0.308957
0.369457
-0.300782
0.401408
-0.288369
0.430025
-0.258592
0.456324
-0.236131
0.4804
-0.212053
0.501873
-0.186632
0.521315
-0.164534
0.538807
-0.142664
0.554275
-0.121671
0.568046
-0.101731
0.580098
-0.0816651
0.590355
-0.0618588
0.598727
-0.0413167
0.605201
-0.0208611
0.609708
0.000595957
0.612249
0.0217823
0.612757
0.0437293
0.611293
0.0638731
0.607995
0.0821169
0.603096
0.0953512
0.596787
0.102242
0.589252
0.107532
0.580568
0.114071
0.57086
0.120396
0.560165
0.127027
0.548558
0.134048
0.536039
0.141492
0.522601
0.149593
0.508212
0.158974
0.49267
0.170823
0.475725
0.187109
0.456817
0.213892
0.435035
0.25613
0.410417
0.359585
0.37582
0.495068
-0.163975
-0.312869
-0.130026
-0.326832
-0.0871183
-0.404732
-0.044844
-0.409736
-0.00184645
-0.423107
0.0422023
-0.436827
0.0841907
-0.423412
0.12088
-0.383209
0.15258
-0.341895
0.179992
-0.303647
0.202847
-0.262127
0.221998
-0.226773
0.238587
-0.199598
0.253178
-0.176477
0.266364
-0.15859
0.27866
-0.144782
0.290317
-0.133784
0.301567
-0.125182
0.312543
-0.118605
0.323291
-0.113275
0.333852
-0.108956
0.344196
-0.104838
0.354287
-0.100052
0.363896
-0.0918623
0.372702
-0.0803863
0.380521
-0.0687757
0.387303
-0.0573554
0.393044
-0.0462787
0.397684
-0.0354044
0.401265
-0.0248789
0.403765
-0.0146481
0.4052
-0.00471852
0.405581
0.00514737
0.404825
0.0153659
0.40283
0.0268871
0.399238
0.0426237
0.393307
0.0663018
0.384266
0.120967
0.369686
0.217702
-0.198526
0.233843
-0.346507
0.26954
-0.352052
0.310396
-0.389209
0.345734
-0.344295
0.380253
-0.335301
0.413847
-0.321963
0.443886
-0.288631
0.471524
-0.263769
0.496664
-0.237193
0.519126
-0.209094
0.539407
-0.184814
0.557639
-0.160896
0.573931
-0.137962
0.588409
-0.116209
0.60108
-0.0943354
0.611933
-0.0727123
0.620978
-0.0503621
0.628142
-0.0280244
0.63331
-0.00457275
0.636423
0.0186699
0.63756
0.0425916
0.63668
0.0647531
0.633948
0.0848498
0.629597
0.0997017
0.623781
0.108058
0.616543
0.11477
0.608065
0.122549
0.59841
0.130051
0.587672
0.137766
0.575927
0.145793
0.563181
0.154238
0.549412
0.163361
0.534578
0.173808
0.518523
0.186877
0.500984
0.204648
0.481423
0.233453
0.458827
0.278725
0.433541
0.384871
0.399593
0.529016
-0.163509
-0.347886
-0.127901
-0.36244
-0.0826258
-0.450008
-0.038162
-0.4542
0.0070813
-0.468351
0.0533956
-0.483142
0.0973467
-0.467363
0.135738
-0.4216
0.168737
-0.374894
0.197154
-0.332065
0.220678
-0.285651
0.240227
-0.246322
0.257042
-0.216413
0.271689
-0.191123
0.284831
-0.171732
0.297038
-0.15699
0.308598
-0.145344
0.319769
-0.136354
0.330702
-0.129537
0.341486
-0.124058
0.35213
-0.1196
0.36264
-0.115348
0.372939
-0.11035
0.38284
-0.101763
0.391961
-0.0895077
0.400118
-0.0769325
0.407243
-0.0644802
0.413292
-0.0523282
0.418257
-0.040369
0.422116
-0.0287375
0.424862
-0.0173942
0.426503
-0.00636
0.427014
0.00463681
0.426349
0.0160311
0.424359
0.0288771
0.420746
0.0462366
0.414737
0.0723107
0.405785
0.129918
0.391913
0.231574
-0.200224
0.237487
-0.38377
0.275151
-0.389715
0.318308
-0.432366
0.355537
-0.381524
0.39184
-0.371604
0.427196
-0.357318
0.458785
-0.32022
0.487739
-0.292722
0.514115
-0.263569
0.537577
-0.232556
0.558828
-0.206065
0.577848
-0.179916
0.594853
-0.154967
0.610009
-0.131365
0.623225
-0.107551
0.634763
-0.08425
0.644431
-0.0600305
0.652188
-0.0357814
0.658009
-0.010394
0.661787
0.0148922
0.663507
0.0408719
0.663239
0.065021
0.661082
0.0870064
0.657238
0.103546
0.651842
0.113454
0.644934
0.121678
0.636691
0.130792
0.62716
0.139582
0.61641
0.148515
0.60454
0.157664
0.591558
0.16722
0.577477
0.177442
0.562206
0.18908
0.54566
0.203422
0.527524
0.222785
0.507317
0.25366
0.483967
0.302075
0.458085
0.410753
0.424631
0.562471
-0.163428
-0.384681
-0.125774
-0.400095
-0.0781202
-0.497661
-0.0312791
-0.501041
0.0162748
-0.515905
0.0649193
-0.531786
0.111135
-0.513578
0.15131
-0.461775
0.18578
-0.409363
0.215302
-0.361587
0.239609
-0.309957
0.259632
-0.266346
0.276724
-0.233505
0.291474
-0.205874
0.3046
-0.184858
0.316748
-0.169138
0.32822
-0.156815
0.339283
-0.147417
0.350158
-0.140412
0.360937
-0.134838
0.371636
-0.130299
0.382255
-0.125967
0.392756
-0.120852
0.40291
-0.111917
0.412326
-0.0989244
0.420803
-0.0854095
0.428259
-0.0719365
0.434649
-0.0587181
0.439926
-0.0456455
0.444068
-0.0328796
0.447057
-0.020383
0.44889
-0.00819307
0.449558
0.00396875
0.448983
0.0166056
0.447024
0.0308366
0.443385
0.0498755
0.437332
0.0783634
0.428556
0.138694
0.415377
0.244754
-0.202238
0.241609
-0.423141
0.281296
-0.429402
0.326867
-0.477937
0.366053
-0.42071
0.404291
-0.409841
0.441604
-0.394632
0.474722
-0.353338
0.505124
-0.323124
0.532862
-0.291307
0.557429
-0.257123
0.57957
-0.228206
0.599443
-0.199789
0.617082
-0.172607
0.632918
-0.147201
0.646891
-0.121524
0.658997
-0.0963565
0.66927
-0.0703031
0.677599
-0.0441111
0.68391
-0.016705
0.688259
0.0105431
0.690594
0.0385374
0.690849
0.0647657
0.689249
0.0886063
0.68593
0.106865
0.681004
0.11838
0.674502
0.128181
0.666471
0.138823
0.657078
0.148976
0.646387
0.159206
0.634424
0.169627
0.621251
0.180393
0.606849
0.191845
0.591205
0.204723
0.574145
0.220482
0.555389
0.24154
0.534528
0.274521
0.510533
0.326071
0.484076
0.43721
0.451147
0.5954
-0.163439
-0.42348
-0.123909
-0.439625
-0.0735924
-0.547978
-0.0242678
-0.550365
0.0257767
-0.565949
0.0769885
-0.582998
0.125494
-0.562083
0.16765
-0.503932
0.203641
-0.445354
0.234426
-0.392373
0.259588
-0.335119
0.280212
-0.28697
0.297658
-0.250951
0.31258
-0.220795
0.325755
-0.198033
0.337844
-0.181226
0.349218
-0.168189
0.360202
-0.158401
0.370992
-0.151202
0.381722
-0.145567
0.392437
-0.141014
0.403157
-0.136687
0.41382
-0.131514
0.424198
-0.122295
0.433907
-0.108633
0.442684
-0.0941867
0.450458
-0.0797103
0.457156
-0.0654159
0.462743
-0.0512327
0.467159
-0.0372959
0.470409
-0.0236331
0.47247
-0.0102539
0.473281
0.00315734
0.472825
0.0170625
0.470914
0.0327474
0.467267
0.0535221
0.4612
0.0844304
0.452573
0.147322
0.440141
0.257185
-0.204622
0.246153
-0.464672
0.287969
-0.471219
0.336055
-0.526023
0.37731
-0.461964
0.417668
-0.4502
0.456938
-0.433902
0.491765
-0.388165
0.523727
-0.355087
0.552763
-0.320343
0.57843
-0.28279
0.601568
-0.251344
0.62232
-0.220542
0.640836
-0.191122
0.657305
-0.16367
0.671867
-0.136086
0.684559
-0.109048
0.695384
-0.0811279
0.704272
-0.0529994
0.711232
-0.0236653
0.716103
0.00567293
0.718933
0.0357066
0.719776
0.063923
0.718676
0.0897065
0.715855
0.109686
0.711369
0.122867
0.705239
0.13431
0.697516
0.146546
0.688292
0.1582
0.677641
0.169856
0.665619
0.181649
0.652287
0.193725
0.637622
0.206509
0.621566
0.220779
0.604012
0.238037
0.584681
0.260871
0.56319
0.296012
0.538527
0.350734
0.511569
0.464168
0.479186
0.627783
-0.163657
-0.464445
-0.121979
-0.481303
-0.0689621
-0.600995
-0.0170081
-0.602319
0.0356807
-0.618638
0.0895792
-0.636896
0.140582
-0.613086
0.184811
-0.54816
0.222501
-0.483045
0.25461
-0.424481
0.280764
-0.361273
0.302033
-0.308239
0.319891
-0.26881
0.33505
-0.235954
0.348302
-0.211285
0.360387
-0.193312
0.371681
-0.179483
0.382562
-0.169283
0.393261
-0.161901
0.403935
-0.156241
0.414635
-0.151714
0.425398
-0.147451
0.436198
-0.142314
0.446804
-0.132901
0.456757
-0.118586
0.465811
-0.103241
0.473884
-0.0877842
0.480892
-0.0724231
0.486784
-0.057125
0.491499
-0.0420114
0.495006
-0.0271397
0.497265
-0.012513
0.49827
0.00215202
0.49792
0.0174132
0.496073
0.0345939
0.492444
0.0571517
0.486381
0.0904933
0.477964
0.155739
0.46631
0.268839
-0.207219
0.25097
-0.508423
0.295117
-0.515366
0.345887
-0.576792
0.389376
-0.505454
0.431898
-0.492722
0.473204
-0.475207
0.509889
-0.424851
0.543465
-0.388663
0.573884
-0.350761
0.600786
-0.309692
0.625061
-0.27562
0.646672
-0.242153
0.665955
-0.210406
0.683156
-0.180871
0.698319
-0.151249
0.711613
-0.122342
0.722978
-0.0924937
0.732432
-0.0624533
0.739861
-0.0310941
0.74529
0.000244252
0.748627
0.032369
0.74994
0.0626104
0.749373
0.0902735
0.74703
0.112029
0.743025
0.126872
0.737266
0.140069
0.729833
0.153979
0.720806
0.167226
0.710228
0.180434
0.698198
0.19368
0.684721
0.207202
0.669809
0.221422
0.653398
0.23719
0.635371
0.256064
0.615489
0.280752
0.593327
0.318174
0.568064
0.375997
0.540648
0.491585
0.508781
0.65965
-0.164032
-0.507633
-0.120144
-0.525191
-0.0642582
-0.656881
-0.00947017
-0.657107
0.0459919
-0.6741
0.102697
-0.693602
0.156406
-0.666795
0.202819
-0.594573
0.242342
-0.522568
0.27589
-0.458029
0.303091
-0.388474
0.325095
-0.330243
0.343469
-0.287184
0.35891
-0.251395
0.372294
-0.224669
0.384412
-0.205429
0.39566
-0.190732
0.406452
-0.180074
0.417052
-0.172502
0.427637
-0.166826
0.43831
-0.162387
0.449099
-0.158239
0.460004
-0.15322
0.470777
-0.143674
0.480953
-0.128762
0.490282
-0.112569
0.498636
-0.0961378
0.50595
-0.0797379
0.512128
-0.0633022
0.517129
-0.0470129
0.520894
-0.0309048
0.523398
-0.015017
0.52457
0.00098012
0.524341
0.0176426
0.52258
0.036354
0.518979
0.060753
0.512984
0.0964884
0.50477
0.163953
0.493874
0.279735
-0.210144
0.256296
-0.554575
0.302885
-0.561955
0.356341
-0.630248
0.402298
-0.551411
0.446988
-0.537412
0.490567
-0.518786
0.529103
-0.463386
0.564396
-0.423956
0.596358
-0.382723
0.624571
-0.337904
0.649831
-0.30088
0.672481
-0.264802
0.69253
-0.230455
0.71045
-0.19879
0.726348
-0.167147
0.740182
-0.136176
0.752127
-0.104438
0.762085
-0.072411
0.770067
-0.0390761
0.77595
-0.00563881
0.779761
0.0285581
0.781597
0.0607737
0.781448
0.0904224
0.77957
0.113907
0.775979
0.130462
0.770604
0.145444
0.763496
0.161087
0.754692
0.176031
0.744269
0.190857
0.73223
0.205719
0.718643
0.220789
0.703497
0.236567
0.686747
0.25394
0.66829
0.274522
0.647825
0.301217
0.625081
0.340918
0.599216
0.401862
0.571323
0.519478
0.539998
0.690975
-0.164615
-0.553162
-0.118345
-0.57146
-0.0593774
-0.715848
-0.00168239
-0.714802
0.0567732
-0.732556
0.116488
-0.753317
0.172935
-0.723242
0.221774
-0.643412
0.263204
-0.563998
0.298341
-0.493166
0.326702
-0.416835
0.349532
-0.353073
0.368463
-0.306114
0.38425
-0.267182
0.39782
-0.238239
0.409981
-0.21759
0.421223
-0.201974
0.431924
-0.190776
0.442425
-0.183002
0.452921
-0.177322
0.463537
-0.173003
0.474328
-0.16903
0.485319
-0.164211
0.496248
-0.154603
0.506633
-0.139146
0.516187
-0.122123
0.524798
-0.104748
0.532378
-0.0873185
0.538854
-0.0697783
0.544124
-0.052283
0.548162
-0.0349427
0.55088
-0.0177342
0.552256
-0.000396025
0.552188
0.0177103
0.550493
0.0380488
0.546986
0.0642605
0.541052
0.102422
0.533117
0.171888
0.522993
0.289859
-0.213301
0.261983
-0.603257
0.311042
-0.611015
0.367567
-0.686772
0.415835
-0.59968
0.46305
-0.584626
0.508895
-0.564631
0.549541
-0.504032
0.586566
-0.460982
0.620113
-0.41627
0.649659
-0.36745
0.6762
-0.327421
0.69978
-0.288382
0.720772
-0.251447
0.739448
-0.217466
0.755976
-0.183675
0.770432
-0.150632
0.782895
-0.116902
0.793336
-0.0828526
0.801752
-0.0474914
0.808121
-0.0120078
0.812427
0.0242514
0.814638
0.0585631
0.814939
0.090121
0.813516
0.115331
0.810343
0.133635
0.80539
0.150397
0.798601
0.167877
0.79002
0.184611
0.779713
0.201165
0.767732
0.2177
0.75407
0.234451
0.738727
0.251909
0.721671
0.270996
0.702786
0.293406
0.681827
0.322176
0.658492
0.364253
0.632067
0.428287
0.603745
0.5478
0.57292
0.7218
-0.165304
-0.601159
-0.116532
-0.620233
-0.0543473
-0.778033
0.00641367
-0.775563
0.0680081
-0.79415
0.13091
-0.816219
0.190361
-0.782694
0.241674
-0.694725
0.285174
-0.607498
0.321965
-0.529956
0.351591
-0.446461
0.375332
-0.376814
0.39489
-0.325673
0.411098
-0.28339
0.424901
-0.252042
0.43717
-0.22986
0.448404
-0.213208
0.459053
-0.201425
0.469459
-0.193407
0.479882
-0.187745
0.490413
-0.183535
0.5012
-0.179817
0.512239
-0.17525
0.523299
-0.165663
0.533865
-0.149712
0.543615
-0.131874
0.552482
-0.113616
0.560322
-0.0951581
0.567047
-0.0765031
0.572615
-0.0578513
0.576899
-0.0392273
0.57986
-0.0206946
0.581411
-0.00194752
0.581496
0.0176257
0.57994
0.0396044
0.576502
0.0676986
0.57071
0.108214
0.56303
0.179568
0.553695
0.299194
-0.216751
0.26805
-0.654555
0.319783
-0.662748
0.379359
-0.746349
0.430352
-0.650672
0.480009
-0.634284
0.528386
-0.613008
0.571049
-0.546695
0.610029
-0.499961
0.645274
-0.451516
0.676306
-0.398482
0.704024
-0.355139
0.728758
-0.313116
0.750631
-0.273321
0.770103
-0.236937
0.787275
-0.200848
0.802372
-0.165729
0.815346
-0.129876
0.826275
-0.0937818
0.835198
-0.0564138
0.841978
-0.0187878
0.846672
0.0195572
0.849313
0.0559226
0.850017
0.0894168
0.848993
0.116354
0.846239
0.13639
0.841638
0.154998
0.835168
0.174346
0.82688
0.192899
0.816747
0.211298
0.804806
0.229641
0.791087
0.24817
0.775599
0.267397
0.758273
0.288322
0.738995
0.312685
0.717553
0.343619
0.693667
0.388138
0.666718
0.455236
0.637988
0.576531
0.607615
0.752173
-0.166109
-0.651801