/*--------------------------------*- C++ -*----------------------------------*\
  =========                 |
  \\      /  F ield         | OpenFOAM: The Open Source CFD Toolbox
   \\    /   O peration     | Website:  https://openfoam.org
    \\  /    A nd           | Version:  7
     \\/     M anipulation  |
\*---------------------------------------------------------------------------*/
FoamFile
{
    version     2.0;
    format      ascii;
    class       volVectorField;
    location    "313";
    object      U;
}
// * * * * * * * * * * * * * * * * * * * * * * * * * * * * * * * * * * * * * //

dimensions      [0 1 -1 0 0 0 0];

internalField   nonuniform List<vector> 
10720
(
(0.349762 28.5703 1.70084e-17)
(2.17481 30.845 -1.57762e-17)
(4.44457 33.03 0)
(7.03973 34.7047 -4.12643e-16)
(9.89657 35.9646 4.62262e-16)
(12.948 36.7672 3.33397e-16)
(16.0363 37.0089 4.56338e-16)
(19.0684 36.7323 0)
(21.9659 36.0009 0)
(24.6512 34.8542 0)
(27.0962 33.3741 1.17544e-16)
(29.289 31.6519 0)
(31.2 29.7072 2.37401e-15)
(32.8249 27.5778 0)
(34.1528 25.2941 0)
(35.1962 22.9029 0)
(35.943 20.4241 -4.00199e-15)
(36.3971 17.9096 -5.98267e-15)
(36.5397 15.3835 5.32273e-15)
(36.3817 12.9058 0)
(35.9053 10.5129 4.37634e-15)
(35.1473 8.27757 -8.57458e-15)
(34.1549 6.25149 4.2702e-15)
(33.0377 4.49786 -1.28066e-16)
(31.9946 3.06444 0)
(31.1107 1.89863 1.6936e-15)
(30.2897 0.912169 2.62062e-17)
(29.4329 0.0635484 -7.42036e-16)
(28.5033 -0.670023 -2.70895e-15)
(27.4971 -1.30329 -9.83461e-15)
(26.4179 -1.84287 4.3834e-15)
(25.2689 -2.29212 7.99233e-15)
(24.0483 -2.65208 6.89478e-15)
(22.7475 -2.92331 2.35671e-14)
(21.3198 -3.10156 -9.53545e-15)
(19.7279 -3.18498 -6.74553e-17)
(17.6707 -3.1216 2.20697e-17)
(15.2485 -2.89788 3.95875e-15)
(9.82904 -2.32938 1.36799e-14)
(-1.10652 26.1308 1.12118e-18)
(-2.29718 23.371 -8.49162e-18)
(-3.15356 20.2558 4.56375e-17)
(-3.53963 16.6312 -1.36665e-16)
(-3.30023 12.8776 -4.69793e-16)
(-2.38905 9.12672 8.40323e-16)
(-0.866239 5.65549 4.1878e-15)
(1.03013 2.75879 2.56775e-15)
(3.01239 0.386385 0)
(5.21593 -1.68812 0)
(7.49816 -3.25557 2.08605e-15)
(9.62181 -4.27749 7.61643e-16)
(11.5085 -4.87414 -1.26806e-15)
(13.1627 -5.17263 1.04433e-15)
(14.6088 -5.27473 1.72322e-15)
(15.8791 -5.24631 1.11072e-15)
(17.0038 -5.13661 1.41783e-15)
(18.0151 -4.97567 9.41315e-16)
(18.9441 -4.78413 0)
(19.8131 -4.56557 0)
(20.6402 -4.32184 -1.30038e-15)
(21.4368 -4.04289 -5.99364e-17)
(22.205 -3.7135 8.82548e-16)
(22.9147 -3.30296 -6.15287e-16)
(23.5 -2.80597 2.36256e-17)
(23.9423 -2.25988 0)
(24.2674 -1.69093 1.04853e-16)
(24.4912 -1.11507 0)
(24.6201 -0.543559 0)
(24.653 0.0121459 2.00985e-17)
(24.5672 0.543847 0)
(24.3764 1.04464 4.4658e-18)
(24.0994 1.50854 -5.05563e-17)
(23.7512 1.9301 -5.9571e-16)
(23.3266 2.30543 5.4775e-16)
(22.8155 2.6352 -2.7707e-18)
(22.0925 2.91168 0)
(21.0888 3.0964 5.17839e-15)
(18.2552 3.23109 9.24521e-15)
(7.07967 24.8216 -5.48492e-18)
(9.01147 26.5601 -2.7582e-18)
(11.3601 28.1306 0)
(14.0565 29.4293 0)
(16.9515 30.3959 -1.35693e-16)
(20.049 30.9703 -3.19556e-16)
(23.2308 31.1082 0)
(26.3616 30.8326 0)
(29.3855 30.1555 6.74254e-16)
(32.2134 29.128 0)
(34.7914 27.8114 2.47324e-15)
(37.0893 26.2535 0)
(39.1019 24.5369 8.82922e-16)
(40.8361 22.7145 -8.69857e-16)
(42.2973 20.8059 1.74947e-15)
(43.454 18.8397 -3.49794e-15)
(44.3056 16.8284 3.74312e-15)
(44.842 14.7973 3.42524e-15)
(45.0637 12.7548 3.35435e-15)
(44.9531 10.7322 2.03836e-16)
(44.5114 8.75568 -3.5023e-15)
(43.7303 6.88015 3.32568e-15)
(42.6356 5.14729 -1.8763e-16)
(41.2635 3.61486 0)
(39.7234 2.33451 0)
(38.1633 1.25251 0)
(36.6409 0.291302 1.41308e-16)
(35.1473 -0.559124 -3.15681e-17)
(33.6838 -1.30134 1.98558e-15)
(32.2451 -1.94192 3.76484e-17)
(30.8156 -2.4836 -2.98232e-17)
(29.3774 -2.92893 -8.71733e-17)
(27.9118 -3.28026 4.74657e-15)
(26.4037 -3.53997 -7.96647e-15)
(24.813 -3.70805 -4.32925e-17)
(23.1209 -3.78554 -9.22503e-15)
(21.0691 -3.73206 0)
(18.8772 -3.54721 -1.14537e-15)
(13.5885 -2.7872 7.25031e-15)
(5.44194 22.9668 6.96279e-18)
(4.01563 20.9011 -3.91551e-17)
(2.75458 18.4797 -4.93575e-16)
(1.78672 15.7258 6.07414e-16)
(1.28823 12.7341 0)
(1.34557 9.63736 -1.31233e-15)
(1.98811 6.63009 -9.40079e-16)
(3.14325 3.93819 -7.34471e-15)
(4.63281 1.59271 2.37122e-15)
(6.36993 -0.362597 -1.7923e-15)
(8.24439 -1.80074 2.2522e-15)
(10.0935 -2.76219 -6.4082e-16)
(11.8282 -3.36485 0)
(13.4158 -3.70856 -4.27949e-16)
(14.8478 -3.87618 5.2475e-17)
(16.1347 -3.9212 -9.54608e-16)
(17.2921 -3.88882 0)
(18.3427 -3.8048 0)
(19.3103 -3.6875 -9.87961e-17)
(20.2174 -3.53483 9.4897e-17)
(21.0793 -3.34522 -1.1231e-15)
(21.9084 -3.10231 -1.21347e-16)
(22.7063 -2.78637 5.33093e-17)
(23.4499 -2.36083 5.94249e-16)
(24.0854 -1.83853 -4.21504e-16)
(24.5881 -1.28627 -3.1071e-16)
(24.9738 -0.732824 0)
(25.2554 -0.189328 0)
(25.4363 0.337809 0)
(25.5216 0.839748 8.5501e-18)
(25.5407 1.30887 0)
(25.4898 1.74217 0)
(25.3585 2.13856 1.24794e-16)
(25.1402 2.49705 2.20686e-16)
(24.8267 2.81937 -4.4407e-16)
(24.4267 3.11091 8.15121e-16)
(23.839 3.36958 -2.50341e-15)
(23.2491 3.58911 -3.96673e-15)
(21.1553 3.62535 -6.22549e-15)
(8.36038 22.8494 -9.74418e-19)
(9.76554 24.3728 1.99174e-17)
(11.4682 25.849 -1.62768e-17)
(13.4211 27.2032 -4.3779e-17)
(15.5686 28.317 -1.78247e-16)
(17.9113 29.1658 6.15726e-16)
(20.3741 29.7097 -4.30497e-16)
(22.8806 29.9121 -5.02443e-16)
(25.3758 29.7717 4.39164e-18)
(27.8017 29.3006 -6.51944e-16)
(30.1064 28.5203 6.04255e-16)
(32.2582 27.4606 -1.56847e-15)
(34.23 26.1528 -7.48426e-16)
(36.008 24.6257 0)
(37.5754 22.9148 -1.79034e-15)
(38.9469 21.0453 3.59638e-15)
(40.1273 19.0376 0)
(41.0968 16.9356 -6.80842e-15)
(41.8457 14.7687 -3.40366e-15)
(42.3461 12.5896 3.96816e-16)
(42.5858 10.4359 -3.93235e-16)
(42.5431 8.37574 -1.78251e-16)
(42.2195 6.45822 -2.53311e-15)
(41.6231 4.74601 1.27271e-15)
(40.805 3.28417 0)
(39.8428 2.01664 1.11177e-15)
(38.758 0.874485 -1.31317e-16)
(37.5448 -0.142448 0)
(36.2211 -1.03103 1.7458e-15)
(34.8142 -1.79564 3.24061e-15)
(33.345 -2.43913 -5.71322e-15)
(31.8269 -2.96552 -4.91773e-15)
(30.2628 -3.37993 -1.05663e-16)
(28.6486 -3.68711 -6.98884e-15)
(26.9497 -3.88941 -5.60522e-15)
(25.1478 -3.98646 8.04493e-15)
(23.0014 -3.94525 0)
(20.7335 -3.72207 -8.9676e-16)
(15.859 -3.03313 -1.10431e-14)
(7.20534 21.2408 -1.24581e-17)
(6.18746 19.4776 -5.00932e-17)
(5.32641 17.3977 1.94533e-16)
(4.62627 15.0627 0)
(4.2362 12.5521 3.80278e-16)
(4.20603 9.93153 0)
(4.56598 7.3276 2.69962e-15)
(5.30233 4.90612 1.63502e-15)
(6.36578 2.74884 1.54241e-15)
(7.69834 0.910511 0)
(9.1845 -0.554106 -2.26358e-15)
(10.7071 -1.65799 -4.85176e-16)
(12.1905 -2.45744 2.19505e-15)
(13.5939 -3.01075 0)
(14.8976 -3.37052 -1.0221e-15)
(16.0989 -3.58154 -3.08611e-16)
(17.2032 -3.683 1.2736e-15)
(18.2234 -3.70218 6.60105e-16)
(19.1758 -3.65852 1.81626e-16)
(20.0773 -3.5582 -9.84587e-17)
(20.9401 -3.40434 1.02363e-15)
(21.7729 -3.18894 0)
(22.576 -2.89891 0)
(23.3299 -2.51255 2.32864e-17)
(23.9911 -2.04312 0)
(24.536 -1.53892 6.43006e-16)
(24.9749 -1.01939 -8.46171e-18)
(25.3192 -0.492389 -4.06242e-17)
(25.5725 0.0342776 0)
(25.7363 0.550512 -2.5513e-17)
(25.8159 1.04885 3.89863e-17)
(25.8167 1.52287 0)
(25.7409 1.96658 -8.24672e-17)
(25.5885 2.37476 0)
(25.3476 2.74553 0)
(25.0172 3.07958 3.87657e-17)
(24.4857 3.37596 -5.22129e-17)
(23.8736 3.59325 3.96438e-15)
(21.9992 3.62998 1.20457e-14)
(10.9046 20.9369 -9.97941e-18)
(12.2018 22.2369 -6.28019e-18)
(13.7523 23.4995 -7.13591e-18)
(15.5311 24.6506 -1.19061e-17)
(17.4885 25.5995 0)
(19.6308 26.3278 0)
(21.9004 26.7924 -7.18463e-16)
(24.2349 26.959 8.5868e-16)
(26.587 26.8213 0)
(28.9009 26.3825 -1.03543e-15)
(31.1249 25.6576 -1.30967e-15)
(33.2207 24.67 -1.23662e-15)
(35.154 23.4506 1.47236e-15)
(36.8981 22.0326 1.38777e-15)
(38.4339 20.4495 0)
(39.7461 18.7355 2.20002e-15)
(40.8068 16.9328 7.6156e-16)
(41.6067 15.074 6.13834e-15)
(42.1434 13.1849 3.71788e-16)
(42.4224 11.2944 -3.68671e-16)
(42.4513 9.43367 3.11564e-15)
(42.2455 7.6472 -5.10191e-16)
(41.833 5.97571 2.77742e-15)
(41.2496 4.4637 1.15925e-15)
(40.5511 3.14294 -6.86173e-17)
(39.7947 1.9761 -1.00581e-15)
(38.9832 0.908598 7.42461e-18)
(38.0837 -0.0639638 -7.44854e-18)
(37.0771 -0.937953 -1.67251e-15)
(35.9573 -1.7138 -4.42762e-17)
(34.7216 -2.38769 2.79255e-15)
(33.3734 -2.95532 -4.75171e-15)
(31.9172 -3.41404 -3.83728e-15)
(30.3582 -3.76247 -1.88699e-18)
(28.6747 -3.99896 5.09863e-15)
(26.8576 -4.11787 0)
(24.6874 -4.0898 4.19032e-15)
(22.3505 -3.82452 7.76701e-16)
(17.7259 -3.17708 4.60576e-15)
(9.80963 19.5743 -2.52368e-17)
(8.82332 18.0932 6.48829e-17)
(7.95204 16.3442 2.92481e-16)
(7.21576 14.3649 0)
(6.74205 12.2275 -3.39521e-16)
(6.56959 9.97505 0)
(6.72452 7.70563 -2.17146e-15)
(7.19514 5.552 -1.01402e-16)
(7.95163 3.58442 1.12594e-15)
(8.95621 1.85488 1.0031e-15)
(10.125 0.416496 3.61257e-17)
(11.3751 -0.720456 1.69244e-15)
(12.6444 -1.58455 -1.10058e-15)
(13.8884 -2.21575 3.48789e-16)
(15.0794 -2.65394 1.19033e-15)
(16.204 -2.9387 1.31047e-15)
(17.2587 -3.10456 -1.17465e-15)
(18.2468 -3.17893 5.32501e-18)
(19.1778 -3.18185 0)
(20.0628 -3.123 1.22182e-15)
(20.9111 -3.00595 5.98563e-17)
(21.7289 -2.82547 -9.18954e-16)
(22.5155 -2.57083 0)
(23.2546 -2.22537 2.20562e-17)
(23.9098 -1.79633 0)
(24.4581 -1.32217 -3.02101e-16)
(24.9052 -0.825708 0)
(25.2613 -0.318769 3.81205e-17)
(25.5301 0.188524 -1.2101e-18)
(25.7142 0.68568 6.84009e-19)
(25.8177 1.16369 -3.53289e-17)
(25.846 1.61501 -1.15695e-18)
(25.8022 2.03552 0)
(25.6883 2.4227 1.88189e-16)
(25.4945 2.77659 3.47564e-18)
(25.2201 3.09716 -8.22162e-16)
(24.7588 3.38498 5.08451e-15)
(24.2007 3.57138 1.21257e-17)
(22.505 3.59729 0)
(12.4703 19.4742 -1.43117e-17)
(13.5718 20.6253 -3.30527e-19)
(14.8952 21.7652 -1.1929e-17)
(16.4057 22.8304 1.67496e-16)
(18.0606 23.7379 -5.65195e-17)
(19.8819 24.4818 -1.96772e-16)
(21.8219 25.0222 3.10015e-16)
(23.8325 25.3232 0)
(25.8833 25.3744 1.20139e-15)
(27.9279 25.1685 5.57858e-16)
(29.9248 24.7067 0)
(31.8406 23.999 1.18853e-15)
(33.6416 23.0625 -6.25545e-16)
(35.2998 21.9164 1.73935e-15)
(36.7932 20.5834 0)
(38.1009 19.0871 -2.886e-15)
(39.2109 17.4447 2.74069e-15)
(40.1133 15.6775 -1.68119e-16)
(40.7931 13.8179 0)
(41.2348 11.9103 2.96367e-15)
(41.4287 10.0006 -2.99098e-15)
(41.3739 8.14666 -1.52574e-16)
(41.0884 6.40172 -2.32343e-15)
(40.6075 4.81758 -2.13266e-15)
(39.9917 3.43005 0)
(39.3077 2.21188 0)
(38.5809 1.11123 -2.304e-16)
(37.7999 0.114736 -2.57966e-17)
(36.9555 -0.779334 1.5907e-15)
(36.0413 -1.57561 -4.22228e-17)
(35.044 -2.27451 4.21568e-17)
(33.9471 -2.87361 4.44886e-15)
(32.7319 -3.36971 0)
(31.3835 -3.75846 1.23961e-14)
(29.869 -4.03414 -4.26874e-17)
(28.1757 -4.18461 0)
(26.1016 -4.18072 -3.21959e-17)
(23.8074 -3.89465 0)
(19.403 -3.26605 -3.91475e-15)
(11.5348 18.274 2.38246e-17)
(10.6897 16.982 -1.55653e-16)
(9.92244 15.4555 1.72098e-16)
(9.24592 13.73 2.76892e-16)
(8.77306 11.8722 -1.09214e-15)
(8.53314 9.9051 -1.41612e-15)
(8.55738 7.90345 1.74174e-15)
(8.84474 5.97637 -1.93035e-15)
(9.38072 4.18864 -8.70654e-16)
(10.1404 2.58656 -7.7485e-16)
(11.0621 1.21321 1.49441e-15)
(12.0842 0.0846016 -1.43686e-15)
(13.158 -0.814293 -6.30253e-16)
(14.2432 -1.50897 6.1313e-16)
(15.3106 -2.02506 -1.33387e-15)
(16.3428 -2.39246 2.44094e-16)
(17.3307 -2.6378 0)
(18.2715 -2.78383 -9.30004e-16)
(19.1687 -2.84793 3.2912e-16)
(20.0285 -2.84062 -1.27826e-15)
(20.8568 -2.76614 0)
(21.6572 -2.62189 7.9636e-16)
(22.4275 -2.40036 6.26715e-16)
(23.153 -2.09065 -4.77022e-16)
(23.8029 -1.69868 0)
(24.3545 -1.25644 -3.19028e-16)
(24.8091 -0.787633 0)
(25.1746 -0.304288 0)
(25.4543 0.183903 0)
(25.6505 0.666626 4.08734e-17)
(25.767 1.13479 0)
(25.8088 1.58161 0)
(25.7791 2.00189 -1.66761e-16)
(25.6805 2.39133 -1.78629e-16)
(25.5049 2.7482 0)
(25.2532 3.07012 -8.53078e-16)
(24.8278 3.35704 6.2717e-17)
(24.317 3.52606 0)
(22.8121 3.53922 -5.23084e-15)
(13.9558 18.1936 1.7047e-17)
(14.9532 19.2133 -1.21344e-17)
(16.1472 20.2296 0)
(17.5047 21.1835 8.05825e-18)
(18.9847 22.0014 -1.35759e-16)
(20.6178 22.6835 1.85551e-16)
(22.3624 23.1917 4.55058e-17)
(24.1796 23.4941 -7.72599e-16)
(26.0482 23.5777 -9.34401e-17)
(27.9297 23.4319 1.14586e-15)
(29.7882 23.0526 -4.08427e-16)
(31.5938 22.4435 9.18536e-16)
(33.3132 21.6147 4.59327e-16)
(34.9172 20.5801 3.32874e-16)
(36.3801 19.3584 0)
(37.6784 17.9712 -6.26212e-16)
(38.7909 16.4445 -1.38077e-15)
(39.6931 14.8157 -5.10543e-15)
(40.3679 13.1185 1.50518e-15)
(40.8063 11.384 -1.91044e-15)
(41.0039 9.64703 -2.99254e-16)
(40.9646 7.94883 0)
(40.7047 6.33268 2.08043e-15)
(40.2557 4.84127 1.32521e-16)
(39.6684 3.50726 -5.91579e-17)
(39.0005 2.31769 -8.24177e-16)
(38.2808 1.23485 1.90037e-16)
(37.5088 0.248114 3.97612e-16)
(36.6854 -0.641404 -1.48789e-15)
(35.8153 -1.43665 -7.94732e-17)
(34.898 -2.1392 2.53342e-15)
(33.9251 -2.74836 4.11497e-15)
(32.8795 -3.26239 0)
(31.7373 -3.67741 -1.86547e-17)
(30.4491 -3.98627 -4.6418e-15)
(28.9823 -4.1713 0)
(27.1267 -4.20095 -7.41899e-15)
(25.0219 -3.91601 0)
(20.9131 -3.31833 3.55013e-15)
(13.1002 17.1343 -2.4046e-17)
(12.3235 16.0014 6.35868e-17)
(11.6043 14.6597 0)
(10.9562 13.1396 0)
(10.4791 11.504 4.69573e-16)
(10.193 9.76598 2.34884e-15)
(10.1273 7.98317 0)
(10.2866 6.24891 -1.41247e-15)
(10.6631 4.6245 -1.35697e-15)
(11.2374 3.14719 1.36526e-15)
(11.9644 1.8514 -5.51274e-17)
(12.7979 0.755927 5.96119e-16)
(13.7011 -0.146248 2.93155e-17)
(14.6403 -0.870658 1.57778e-15)
(15.5882 -1.43284 1.41675e-15)
(16.5267 -1.85418 -1.33031e-15)
(17.4436 -2.15483 1.87504e-16)
(18.332 -2.3533 -3.48685e-16)
(19.1903 -2.46464 1.61417e-16)
(20.0205 -2.49906 9.39137e-16)
(20.825 -2.46148 1.21591e-16)
(21.6047 -2.3513 -8.83786e-17)
(22.3563 -2.16315 -5.34266e-16)
(23.0661 -1.88975 0)
(23.7074 -1.53599 2.23648e-17)
(24.2585 -1.1278 5.9356e-16)
(24.7173 -0.687878 -3.17168e-18)
(25.0892 -0.228696 3.14554e-18)
(25.3768 0.23956 0)
(25.5819 0.705957 -3.8387e-17)
(25.7079 1.16079 0)
(25.7591 1.59621 0)
(25.7388 2.00631 1.53493e-16)
(25.6494 2.38659 2.22401e-16)
(25.4831 2.73507 0)
(25.2411 3.04779 7.94073e-16)
(24.8321 3.32424 -4.7159e-15)
(24.3409 3.46973 2.18143e-17)
(22.9905 3.45998 4.78455e-15)
(15.1632 17.1051 -3.08885e-19)
(16.0612 18.0201 -1.18988e-17)
(17.1357 18.9394 -3.27379e-18)
(18.3523 19.8079 3.1913e-18)
(19.6702 20.5599 9.13972e-17)
(21.1258 21.2013 0)
(22.6813 21.6983 -3.50051e-16)
(24.3039 22.0217 9.39009e-18)
(25.9811 22.1597 -3.45393e-16)
(27.68 22.1005 -6.97186e-16)
(29.372 21.8364 0)
(31.033 21.3661 -1.67134e-15)
(32.6323 20.6935 -1.43054e-15)
(34.1429 19.8261 -3.47171e-15)
(35.5394 18.7763 0)
(36.7969 17.5606 -2.13072e-15)
(37.8921 16.1994 -2.23051e-15)
(38.8067 14.7119 2.40941e-15)
(39.5239 13.1228 -2.36843e-15)
(40.028 11.466 2.19249e-15)
(40.3087 9.7813 2.69019e-16)
(40.3626 8.11639 -2.31592e-15)
(40.1989 6.51951 0)
(39.8421 5.03554 -1.98427e-15)
(39.3341 3.69681 1.16354e-16)
(38.7247 2.49683 8.632e-16)
(38.0438 1.40509 0)
(37.2967 0.410511 -2.95571e-17)
(36.4874 -0.48611 6.33441e-17)
(35.6253 -1.28731 2.43467e-15)
(34.7172 -1.99504 -2.25679e-15)
(33.766 -2.60949 -3.91996e-15)
(32.7681 -3.13032 3.32348e-15)
(31.7145 -3.55596 -6.13874e-17)
(30.567 -3.88146 4.45065e-15)
(29.2978 -4.08933 6.2213e-15)
(27.696 -4.1487 3.60468e-15)
(25.8928 -3.87675 -1.14465e-17)
(22.2066 -3.32808 -3.56976e-18)
(14.3873 16.1568 9.76835e-18)
(13.6798 15.1488 1.25183e-16)
(13.0124 13.953 1.7255e-16)
(12.3981 12.5968 -3.22692e-16)
(11.9272 11.1402 -1.29055e-15)
(11.6147 9.58857 4.2505e-16)
(11.4876 7.98662 1.11013e-15)
(11.5558 6.41713 2.90116e-15)
(11.8147 4.93849 1.17303e-15)
(12.2481 3.57874 -1.10043e-15)
(12.8223 2.36611 -3.81492e-17)
(13.5019 1.31916 -5.34311e-16)
(14.2591 0.434121 0)
(15.0669 -0.298495 -2.59812e-17)
(15.9018 -0.887571 -8.73097e-16)
(16.7467 -1.34794 3.81876e-16)
(17.5889 -1.6939 -3.74411e-16)
(18.4188 -1.93914 0)
(19.2319 -2.09542 5.69024e-16)
(20.0267 -2.17152 -9.94156e-16)
(20.8025 -2.17189 0)
(21.5581 -2.09682 7.30367e-16)
(22.2887 -1.94277 0)
(22.9813 -1.70517 -2.78937e-17)
(23.6126 -1.38845 2.76033e-17)
(24.1615 -1.01386 -2.90083e-16)
(24.6231 -0.602644 -5.24116e-18)
(25.0006 -0.167833 -3.20371e-18)
(25.2956 0.27992 8.55936e-19)
(25.5094 0.729433 -4.89985e-17)
(25.6446 1.17057 -7.12034e-17)
(25.7052 1.5952 1.10565e-16)
(25.6938 1.99699 3.11704e-18)
(25.6128 2.37066 2.58866e-17)
(25.4544 2.71332 0)
(25.2195 3.01889 1.51087e-17)
(24.8223 3.28574 2.18036e-15)
(24.342 3.40933 -1.04565e-17)
(23.1086 3.37317 4.37683e-15)
(16.2201 16.1476 3.66344e-18)
(17.0431 16.9729 1.77638e-17)
(18.0264 17.8059 0)
(19.1355 18.5947 -2.54161e-17)
(20.33 19.2803 3.88674e-17)
(21.6488 19.872 0)
(23.0577 20.3389 -1.30217e-16)
(24.528 20.6551 1.00627e-15)
(26.0528 20.81 -1.38343e-15)
(27.605 20.7913 4.41425e-16)
(29.1607 20.5899 5.93976e-16)
(30.7006 20.2014 2.13023e-15)
(32.198 19.6256 1.51974e-15)
(33.6279 18.8654 1.80526e-15)
(34.9656 17.9286 4.75268e-16)
(36.1857 16.8271 1.56701e-15)
(37.2645 15.5772 2.14287e-15)
(38.1796 14.2006 2.06552e-15)
(38.9088 12.7273 -1.51699e-15)
(39.4359 11.1884 -4.63694e-15)
(39.7508 9.61797 0)
(39.8507 8.05553 8.49878e-17)
(39.7437 6.54299 1.80296e-15)
(39.4509 5.12022 1.88873e-15)
(39.007 3.81743 -1.07238e-16)
(38.4535 2.63541 -7.79251e-16)
(37.8182 1.55329 5.58402e-18)
(37.1085 0.562647 -3.95607e-16)
(36.3286 -0.334378 4.16267e-17)
(35.4867 -1.13832 -4.56857e-15)
(34.5901 -1.84998 -7.7334e-18)
(33.6441 -2.46868 -6.16483e-17)
(32.6505 -2.99359 -3.1966e-15)
(31.6103 -3.4231 -6.10847e-17)
(30.5018 -3.75343 -4.15691e-15)
(29.3216 -3.96841 -1.18958e-14)
(27.89 -4.04268 3.41456e-15)
(26.3819 -3.78057 6.58266e-16)
(23.2165 -3.28832 2.85023e-15)
(15.504 15.2938 -4.51774e-17)
(14.8493 14.39 -1.70818e-16)
(14.2228 13.3159 -1.25309e-16)
(13.6371 12.0956 -3.20137e-16)
(13.1746 10.7869 7.2166e-16)
(12.8467 9.38984 -5.22967e-17)
(12.6776 7.93977 -2.85065e-15)
(12.6798 6.51224 -1.00057e-15)
(12.8508 5.16238 1.37068e-17)
(13.1763 3.91057 0)
(13.6302 2.78062 -9.42893e-16)
(14.1846 1.78964 8.82241e-16)
(14.8183 0.934891 -8.52091e-16)
(15.5102 0.210132 -4.37267e-16)
(16.2409 -0.389218 3.66633e-16)
(16.9959 -0.873274 3.64225e-16)
(17.7628 -1.25137 1.31157e-15)
(18.5316 -1.53285 -3.10737e-16)
(19.2956 -1.72632 -5.31577e-16)
(20.0509 -1.83875 0)
(20.7945 -1.87378 -8.11356e-16)
(21.523 -1.83206 -6.06237e-16)
(22.2305 -1.71114 -1.19553e-17)
(22.9045 -1.50841 -6.56555e-17)
(23.5237 -1.22797 -2.17695e-17)
(24.0681 -0.887031 3.33542e-16)
(24.5306 -0.505194 -6.55471e-18)
(24.9121 -0.0957636 5.29415e-17)
(25.2134 0.33035 9.58812e-18)
(25.4349 0.761851 4.49098e-17)
(25.5788 1.18827 -1.02002e-17)
(25.6482 1.60096 -2.39047e-16)
(25.6456 1.993 -2.22962e-16)
(25.5728 2.35841 -2.2097e-16)
(25.4224 2.69357 -9.44868e-18)
(25.1947 2.99053 5.25481e-18)
(24.8092 3.24627 -2.18716e-15)
(24.3406 3.34908 -3.03401e-15)
(23.205 3.28707 -4.02369e-15)
(17.1339 15.3006 -1.11883e-17)
(17.8926 16.0496 -6.22411e-18)
(18.7978 16.8084 -7.52486e-18)
(19.815 17.5287 -4.48477e-17)
(20.9041 18.1559 7.19376e-17)
(22.1051 18.7028 -1.58382e-16)
(23.3865 19.1414 4.95632e-16)
(24.7226 19.4483 0)
(26.1105 19.6153 4.22262e-16)
(27.5268 19.6304 1.06699e-17)
(28.9526 19.4841 -5.10254e-16)
(30.3728 19.1708 -1.96439e-15)
(31.7643 18.6875 -7.94009e-16)
(33.105 18.0339 0)
(34.3723 17.2139 0)
(35.5417 16.2353 0)
(36.5891 15.1111 0)
(37.492 13.8587 -2.00158e-15)
(38.2299 12.4987 1.98498e-15)
(38.7847 11.0587 1.94147e-15)
(39.1432 9.57201 -1.56146e-15)
(39.2993 8.07816 1.36842e-15)
(39.2571 6.61914 -1.40988e-15)
(39.0332 5.23477 -1.03145e-16)
(38.6561 3.95463 -4.69275e-17)
(38.1613 2.78347 7.88987e-16)
(37.5753 1.707 1.69763e-16)
(36.9083 0.718563 0)
(36.1657 -0.179403 0)
(35.3551 -0.986188 3.83224e-17)
(34.483 -1.70193 0)
(33.5541 -2.32528 3.40433e-15)
(32.5699 -2.85466 -3.02566e-15)
(31.533 -3.28752 -4.88383e-15)
(30.4275 -3.61978 7.7614e-15)
(29.2639 -3.83398 5.66846e-15)
(27.8957 -3.90996 -3.2623e-15)
(26.5655 -3.6439 -1.27969e-15)
(23.9158 -3.1972 -2.73324e-15)
(16.4699 14.5266 0)
(15.8611 13.71 4.7744e-17)
(15.2712 12.7378 2.38918e-16)
(14.7126 11.6317 -1.03473e-15)
(14.2613 10.4473 9.12018e-16)
(13.9251 9.18043 -7.46997e-16)
(13.7275 7.8595 6.75615e-18)
(13.6816 6.55515 7.5897e-16)
(13.786 5.31894 8.08153e-16)
(14.0283 4.1655 0)
(14.3871 3.11495 3.91328e-16)
(14.8397 2.18286 -1.19673e-15)
(15.3697 1.36637 1.9016e-15)
(15.9608 0.660758 3.47264e-16)
(16.5974 0.0635865 -7.07509e-16)
(17.2678 -0.431821 -6.59916e-16)
(17.961 -0.831219 -6.07547e-16)
(18.6674 -1.14039 0)
(19.3796 -1.36492 0)
(20.0922 -1.50956 0)
(20.8003 -1.57686 7.62636e-16)
(21.4989 -1.56722 0)
(22.1812 -1.47879 -4.93723e-16)
(22.8349 -1.31016 -6.32541e-17)
(23.4403 -1.06502 -3.83183e-16)
(23.9781 -0.757476 -2.9586e-16)
(24.4396 -0.405237 0)
(24.8238 -0.0216253 -4.41829e-17)
(25.1303 0.38231 -1.01821e-17)
(25.3589 0.795187 1.90337e-18)
(25.5109 1.20625 1.58931e-16)
(25.589 1.60643 -1.74951e-17)
(25.595 1.98832 2.16562e-16)
(25.5306 2.34522 -2.57257e-16)
(25.3882 2.67268 0)
(25.1681 2.96091 -1.44702e-17)
(24.795 3.2053 -3.34464e-17)
(24.3402 3.2892 2.88474e-15)
(23.2944 3.20326 -2.41867e-17)
(17.9372 14.5416 1.36999e-17)
(18.642 15.2242 0)
(19.4817 15.9176 3.6528e-17)
(20.4218 16.5764 -1.90306e-18)
(21.4231 17.1502 -4.09398e-17)
(22.5256 17.6536 1.48717e-16)
(23.6997 18.0612 -2.19158e-16)
(24.9219 18.3526 -2.60059e-16)
(26.1924 18.5208 0)
(27.4908 18.5546 -4.41721e-16)
(28.8019 18.4452 -4.70778e-16)
(30.1141 18.1862 4.67275e-16)
(31.4078 17.773 1.73558e-15)
(32.6641 17.2027 6.92054e-16)
(33.8626 16.4761 -2.0924e-15)
(34.98 15.598 -1.503e-15)
(35.9933 14.5777 1.18091e-15)
(36.8798 13.429 8.69541e-16)
(37.6181 12.1718 -4.3455e-16)
(38.1881 10.8322 4.32733e-16)
(38.5755 9.44042 1.09796e-15)
(38.7732 8.03142 2.04307e-16)
(38.7826 6.64326 -1.91819e-16)
(38.6168 5.31287 -1.27589e-15)
(38.299 4.06836 0)
(37.8585 2.91771 -6.68677e-16)
(37.3198 1.85324 -3.19211e-16)
(36.6948 0.871325 -2.94456e-16)
(35.9899 -0.0245942 -1.08922e-15)
(35.213 -0.832325 4.07818e-15)
(34.3706 -1.55096 1.67955e-15)
(33.4668 -2.17847 3.89104e-18)
(32.5025 -2.71239 3.89708e-17)
(31.4791 -3.14913 0)
(30.3805 -3.48363 -3.66761e-15)
(29.2193 -3.69603 0)
(27.8654 -3.76941 0)
(26.5878 -3.48991 6.17848e-16)
(24.3476 -3.06536 4.37709e-18)
(17.3173 13.8364 -4.64081e-17)
(16.7476 13.0945 1.60544e-16)
(16.1897 12.2096 1.06347e-17)
(15.656 11.2012 2.3017e-16)
(15.2171 10.1228 -8.37335e-16)
(14.8777 8.96702 6.2953e-16)
(14.6605 7.75729 3.62717e-17)
(14.5795 6.56088 -6.3358e-16)
(14.6332 5.42499 -6.24443e-16)
(14.8107 4.36042 -6.67644e-16)
(15.0938 3.38459 -1.33135e-15)
(15.4637 2.51143 0)
(15.9071 1.73735 -6.87274e-16)
(16.4113 1.05813 -2.45618e-17)
(16.964 0.472575 0)
(17.5562 -0.0241549 -5.82658e-16)
(18.1789 -0.435143 -2.77941e-16)
(18.8234 -0.763572 -2.62372e-16)
(19.4826 -1.01248 9.09014e-16)
(20.1501 -1.18445 8.13956e-16)
(20.8202 -1.28058 -8.49283e-17)
(21.4866 -1.30079 6.33803e-16)
(22.1417 -1.24344 1.27083e-16)
(22.7735 -1.10759 -6.08074e-17)
(23.3633 -0.896595 3.42019e-16)
(23.8926 -0.622017 2.09171e-17)
(24.3513 -0.299531 0)
(24.7366 0.057816 0)
(25.0472 0.438902 -1.99114e-18)
(25.282 0.832372 5.06124e-18)
(25.4416 1.22728 -1.74192e-16)
(25.528 1.61413 -1.70392e-17)
(25.5425 1.98509 2.73663e-16)
(25.4864 2.33273 2.46395e-16)
(25.3523 2.65177 1.0982e-17)
(25.1402 2.93073 3.62155e-18)
(24.7802 3.16336 4.06104e-15)
(24.3406 3.22981 -2.75473e-15)
(23.3807 3.12253 2.25721e-17)
(18.6467 13.856 5.22947e-18)
(19.3046 14.4806 0)
(20.0875 15.1162 -2.47777e-17)
(20.9612 15.7201 0)
(21.8867 16.2459 -8.91616e-17)
(22.9042 16.7093 8.64087e-17)
(23.9852 17.087 1.67187e-16)
(25.1083 17.3611 2.4539e-16)
(26.2753 17.5259 0)
(27.4684 17.5717 -2.95615e-16)
(28.6754 17.4903 4.82793e-16)
(29.8877 17.275 -9.88011e-16)
(31.0887 16.9206 -5.51522e-16)
(32.2622 16.4229 -5.58824e-16)
(33.3903 15.7804 1.33384e-15)
(34.4519 14.9952 1.43773e-15)
(35.4252 14.0737 -1.53511e-15)
(36.288 13.0268 -1.52166e-15)
(37.0192 11.8703 0)
(37.599 10.6261 3.97544e-16)
(38.0112 9.32144 -7.6969e-16)
(38.2468 7.98916 1.89661e-16)
(38.3045 6.66536 4.25021e-18)
(38.1937 5.38531 3.01846e-15)
(37.9325 4.17598 -1.65026e-16)
(37.5451 3.0473 1.00027e-16)
(37.0534 1.99657 2.96427e-16)
(36.4702 1.02291 3.13835e-16)
(35.803 0.130646 9.41492e-16)
(35.0599 -0.676667 -1.88578e-15)
(34.2478 -1.39709 -1.5468e-15)
(33.3712 -2.02793 -6.06946e-15)
(32.4311 -2.56596 5.23072e-15)
(31.4282 -3.00657 -7.41251e-17)
(30.3464 -3.34381 3.43033e-15)
(29.1957 -3.5552 -1.07442e-16)
(27.8559 -3.62624 5.99091e-17)
(26.5702 -3.33337 3.86087e-18)
(24.6021 -2.90774 -2.10724e-15)
(18.0653 13.2109 2.25137e-17)
(17.53 12.5334 -8.34617e-17)
(17.0009 11.7241 1.6576e-16)
(16.4901 10.8003 0)
(16.0643 9.81356 4.89942e-16)
(15.7253 8.75367 0)
(15.4953 7.64107 0)
(15.3884 6.53963 0)
(15.4032 5.49271 1.1631e-15)
(15.5299 4.50838 -5.77127e-16)
(15.7526 3.60201 6.51868e-16)
(16.0551 2.78612 0)
(16.4263 2.05623 0)
(16.8561 1.40796 -5.94357e-16)
(17.3348 0.840621 0)
(17.8559 0.350483 5.42871e-16)
(18.4122 -0.0642239 1.27281e-17)
(18.9966 -0.404581 0)
(19.6026 -0.671537 -6.49827e-16)
(20.2238 -0.8659 -9.64955e-16)
(20.854 -0.987425 -6.73362e-16)
(21.4862 -1.03518 -5.88326e-16)
(22.1124 -1.00723 1.01111e-15)
(22.7207 -0.902796 0)
(23.2933 -0.724734 3.4239e-16)
(23.8121 -0.48239 3.19925e-16)
(24.2662 -0.189544 1.21439e-16)
(24.6512 0.141283 0)
(24.9647 0.499037 -9.54086e-18)
(25.2048 0.87245 -5.99288e-17)
(25.3714 1.2505 1.82249e-16)
(25.4657 1.62335 -1.65545e-17)
(25.4886 1.98272 -2.50794e-16)
(25.4408 2.32053 2.7024e-16)
(25.3151 2.63064 -2.04288e-18)
(25.1115 2.9 1.07095e-17)
(24.7655 3.12053 -3.95481e-15)
(24.3422 3.17126 2.58031e-15)
(23.4645 3.04549 6.27932e-15)
(19.2779 13.2321 2.12421e-18)
(19.8948 13.8054 -1.51956e-17)
(20.628 14.3895 0)
(21.4439 14.9441 1.18112e-18)
(22.3038 15.4262 0)
(23.2475 15.8521 0)
(24.2476 16.2009 1.84414e-17)
(25.2842 16.4563 2.11768e-16)
(26.3603 16.614 4.87202e-16)
(27.4603 16.6655 1.23351e-15)
(28.5739 16.6035 6.93533e-16)
(29.6952 16.4217 7.96647e-16)
(30.81 16.1145 0)
(31.9051 15.6766 1.5383e-15)
(32.9649 15.1052 -5.44087e-16)
(33.9703 14.4005 0)
(34.9012 13.566 1.28196e-15)
(35.7364 12.6101 1.45811e-15)
(36.4554 11.5456 0)
(37.0383 10.3918 1.41393e-15)
(37.4678 9.17333 -1.38122e-15)
(37.7335 7.91968 0)
(37.8323 6.66375 -1.63457e-16)
(37.77 5.43841 3.16552e-17)
(37.5608 4.26923 7.78579e-17)
(37.2238 3.1674 1.16616e-15)
(36.7781 2.13422 -3.98823e-18)
(36.2365 1.17173 -3.10545e-17)
(35.6071 0.285487 -2.61409e-17)
(34.898 -0.519703 5.72044e-17)
(34.1164 -1.24062 1.55888e-15)
(33.2672 -1.87377 5.49403e-15)
(32.352 -2.41517 4.31362e-17)
(31.3718 -2.85923 -3.99405e-15)
(30.3114 -3.19919 -3.11839e-15)
(29.1789 -3.41026 -4.62243e-15)
(27.8657 -3.47952 -2.70407e-15)
(26.5688 -3.17952 2.1739e-17)
(24.7685 -2.73932 1.96518e-15)
(18.7304 12.6399 -5.28627e-17)
(18.2255 12.0189 -2.00849e-16)
(17.7224 11.2757 4.011e-16)
(17.2331 10.426 0)
(16.8204 9.51922 8.01826e-16)
(16.4845 8.54324 0)
(16.2465 7.51618 -4.54588e-16)
(16.1206 6.49889 1.82872e-15)
(16.1055 5.53119 -1.41867e-15)
(16.1921 4.6195 0)
(16.3664 3.77727 1.05856e-15)
(16.6137 3.01584 1.02647e-15)
(16.9247 2.33007 0)
(17.291 1.71533 -1.01748e-15)
(17.705 1.17084 2.47189e-16)
(18.1621 0.693084 -2.47306e-16)
(18.657 0.281188 2.4155e-16)
(19.184 -0.0646676 4.25755e-16)
(19.7377 -0.343934 -1.50864e-17)
(20.3122 -0.555871 5.18738e-16)
(20.9012 -0.69895 1.54902e-16)
(21.4977 -0.771357 -1.47606e-16)
(22.0936 -0.770759 -4.79926e-16)
(22.677 -0.696069 4.14203e-16)
(23.2307 -0.549462 -3.04037e-16)
(23.7371 -0.338489 -3.24321e-16)
(24.1849 -0.0750334 -1.15519e-16)
(24.5681 0.229117 -1.33672e-18)
(24.8832 0.563101 1.04473e-17)
(25.1278 0.915866 5.73126e-17)
(25.3007 1.27637 8.81536e-18)
(25.4024 1.63451 -1.60323e-17)
(25.4334 1.98162 3.05528e-16)
(25.394 2.30896 -2.77187e-16)
(25.277 2.60954 1.11959e-17)
(25.0823 2.86887 -7.96825e-16)
(24.751 3.07716 1.92062e-15)
(24.345 3.11369 0)
(23.5459 2.97189 -6.02039e-15)
(19.8421 12.6609 8.67535e-18)
(20.4227 13.1886 0)
(21.112 13.7264 0)
(21.8766 14.2365 -2.25986e-17)
(22.6789 14.679 -1.95214e-17)
(23.5576 15.0704 0)
(24.4866 15.3915 0)
(25.4469 15.628 -7.00443e-16)
(26.4425 15.7766 -3.49904e-17)
(27.4593 15.83 -4.21636e-17)
(28.4888 15.7817 -1.60492e-15)
(29.527 15.6259 -4.17245e-16)
(30.562 15.3571 7.93123e-16)
(31.5828 14.9698 -6.77622e-17)
(32.5762 14.4602 0)
(33.5252 13.8267 0)
(34.4118 13.0712 -3.51853e-15)
(35.2159 12.1992 -6.44417e-16)
(35.9178 11.2214 6.58439e-16)
(36.4983 10.1533 -1.37189e-15)
(36.9396 9.01682 2.60374e-15)
(37.2299 7.83867 1.23234e-15)
(37.3642 6.64899 -1.19186e-15)
(37.3455 5.47854 -1.34401e-15)
(37.1842 4.35143 2.12862e-16)
(36.8952 3.27932 -1.14917e-15)
(36.4945 2.26648 -1.29617e-16)
(35.9943 1.31759 2.88906e-17)
(35.403 0.439437 -2.88562e-17)
(34.7284 -0.361881 9.69604e-17)
(33.9778 -1.08194 -4.01099e-17)
(33.1565 -1.71636 -2.71452e-15)
(32.2665 -2.26028 -1.02931e-16)
(31.3095 -2.70722 1.22267e-16)
(30.2718 -3.04953 0)
(29.1606 -3.26064 4.29923e-15)
(27.881 -3.3279 2.53293e-15)
(26.5914 -3.0273 0)
(24.9046 -2.56905 0)
(19.325 12.1157 0)
(18.8473 11.5446 1.80225e-16)
(18.3681 10.8598 -6.02344e-16)
(17.899 10.0756 -2.94141e-16)
(17.4993 9.23936 -7.31437e-16)
(17.1684 8.33737 0)
(16.9258 7.38633 0)
(16.7861 6.4441 -8.1837e-16)
(16.748 5.54741 8.58421e-16)
(16.8029 4.70139 0)
(16.938 3.91807 -4.49092e-16)
(17.1401 3.20793 -4.85375e-16)
(17.4009 2.56536 4.60345e-16)
(17.7132 1.98515 4.78494e-16)
(18.071 1.46617 -8.89419e-16)
(18.471 1.00506 0)
(18.9096 0.601131 -2.02308e-16)
(19.3826 0.255265 1.19875e-17)
(19.8857 -0.031078 9.00542e-16)
(20.4139 -0.255995 -1.68108e-16)
(20.9613 -0.416808 1.61257e-16)
(21.5211 -0.510875 -1.23907e-16)
(22.0854 -0.535302 1.75614e-16)
(22.6425 -0.48852 -8.41288e-16)
(23.1759 -0.371829 -3.00407e-16)
(23.6683 -0.191127 2.63385e-16)
(24.1078 0.0434164 -1.62119e-17)
(24.4877 0.320921 0)
(24.8032 0.630883 -9.85451e-18)
(25.0512 0.962514 6.02718e-17)
(25.2297 1.30486 -9.27437e-17)
(25.3385 1.64762 1.63334e-16)
(25.3774 1.98179 -6.16125e-16)
(25.3463 2.29804 6.34396e-16)
(25.2382 2.58853 -9.622e-18)
(25.0527 2.8375 7.54707e-16)
(24.737 3.03335 3.49299e-17)
(24.3492 3.05735 -7.49242e-17)
(23.6248 2.9022 -5.40143e-15)
(20.349 12.1354 -8.41662e-18)
(20.897 12.622 0)
(21.5469 13.1181 0)
(22.2659 13.5877 1.81453e-17)