/*--------------------------------*- C++ -*----------------------------------*\
  =========                 |
  \\      /  F ield         | OpenFOAM: The Open Source CFD Toolbox
   \\    /   O peration     | Website:  https://openfoam.org
    \\  /    A nd           | Version:  7
     \\/     M anipulation  |
\*---------------------------------------------------------------------------*/
FoamFile
{
    version     2.0;
    format      ascii;
    class       volScalarField;
    location    "300";
    object      p;
}
// * * * * * * * * * * * * * * * * * * * * * * * * * * * * * * * * * * * * * //

dimensions      [0 2 -2 0 0 0 0];

internalField   nonuniform List<scalar> 
10720
(
-90.2794
-164.334
-251.735
-337.192
-415.605
-495.542
-565.941
-624.658
-675.569
-715.071
-745.148
-767.103
-781.74
-790.263
-793.116
-789.841
-781.358
-766.331
-745.903
-718.695
-685.742
-646.237
-602.413
-555.175
-508.026
-466.05
-428.235
-390.992
-354.041
-317.604
-281.502
-245.593
-209.774
-173.816
-137.464
-99.6134
-59.9003
-12.3487
35.4477
-15.3172
52.7892
126.292
195.415
254.965
300.96
329.736
340.825
340.199
329.308
309.562
286.492
263.042
240.236
218.763
198.498
179.534
161.464
144.037
126.759
109.585
92.1965
74.6872
57.4547
42.3917
30.5661
20.9291
13.0938
7.06356
2.89539
0.492453
-0.251113
0.585339
3.00533
7.02043
13.0482
21.6428
36.5281
61.6147
23.3364
-33.0401
-95.9934
-162.65
-230.936
-300.673
-368.188
-431.378
-489.622
-541.141
-585.617
-623.048
-653.498
-677.033
-693.577
-702.845
-705.441
-700.935
-689.874
-671.643
-646.799
-615.069
-578.135
-537.143
-495.18
-456.563
-420.833
-385.196
-349.483
-314.011
-278.688
-243.411
-208.103
-172.552
-136.515
-98.9066
-59.3794
-11.918
35.1233
74.1673
122.807
171.555
218.943
261.08
295.361
318.79
330.097
330.643
321.686
305.798
286.362
265.512
244.361
223.669
203.705
184.636
166.31
148.554
131.049
113.705
96.3124
78.9562
62.0439
47.0489
34.8862
24.8365
16.5747
10.1235
5.53798
2.74806
1.65628
2.18089
4.32443
8.10826
13.9538
22.4059
37.202
61.2747
39.8223
-10.6373
-67.2275
-129.516
-193.91
-259.728
-325.378
-388.158
-446.494
-499.398
-545.634
-584.896
-616.998
-641.883
-659.75
-670.799
-675.26
-672.948
-664.056
-648.349
-626.129
-597.45
-563.572
-525.776
-486.617
-449.633
-414.935
-380.361
-345.592
-310.907
-276.245
-241.508
-206.633
-171.428
-135.66
-98.2634
-58.9093
-11.6401
34.8715
85.4629
130.034
174.562
217.025
254.043
284.003
304.862
315.923
317.897
311.633
299.022
282.354
263.475
243.663
223.795
204.335
185.519
167.345
149.694
132.339
115.158
98.012
80.9664
64.3931
49.4609
37.0644
26.7975
18.3491
11.721
6.959
4.00262
2.75461
3.13506
5.14781
8.82254
14.5818
22.9676
37.6407
60.7285
64.825
22.3697
-25.9648
-79.0248
-134.607
-192.634
-251.436
-309.184
-364.542
-416.373
-463.537
-505.366
-541.378
-571.283
-594.863
-612.116
-622.799
-626.643
-623.593
-613.531
-596.629
-573.096
-543.95
-510.519
-475.009
-440.443
-407.405
-374.308
-340.773
-307.087
-273.252
-239.194
-204.869
-170.104
-134.681
-97.564
-58.448
-11.4976
34.4734
102.918
139.659
176.634
212.529
244.221
270.473
289.451
300.39
303.579
299.548
289.749
275.89
259.462
241.635
223.257
204.848
186.715
168.971
151.586
134.43
117.415
100.468
83.6611
67.3449
52.4799
39.9093
29.4318
20.7614
13.8936
8.879
5.66954
4.17942
4.33808
6.15484
9.66697
15.2961
23.5715
38.0463
60.1529
73.0509
35.3212
-7.84572
-55.5492
-105.663
-158.588
-212.925
-267.022
-319.853
-370.258
-417.089
-459.551
-496.973
-528.828
-554.73
-574.444
-587.606
-594.102
-593.798
-586.682
-572.862
-552.622
-526.795
-496.637
-464.05
-431.552
-399.953
-368.139
-335.724
-302.98
-269.958
-236.596
-202.857
-168.579
-133.555
-96.7767
-57.9672
-11.4419
33.8386
106.996
139.561
172.419
204.313
232.493
256.125
273.726
284.556
288.683
286.51
279.137
267.844
253.788
237.969
221.183
203.965
186.676
169.52
152.55
135.724
118.996
102.341
85.8465
69.8391
55.1169
42.4511
31.8027
22.9437
15.8715
10.6406
7.21606
5.52251
5.49522
7.1452
10.5149
16.024
24.1845
38.4311
59.5416
78.3481
44.9049
6.43155
-36.0727
-80.7523
-128.315
-177.458
-226.867
-275.785
-323.155
-367.99
-409.524
-447.015
-479.825
-507.461
-529.517
-545.625
-555.533
-558.967
-555.782
-545.978
-529.79
-507.895
-481.441
-452.084
-421.952
-392.017
-361.606
-330.396
-298.65
-266.473
-233.829
-200.696
-166.929
-132.333
-95.9349
-57.4899
-11.5014
32.974
108.434
137.179
166.378
194.916
220.259
241.795
258.294
268.98
273.789
273.096
267.726
258.669
246.823
233.01
217.934
202.098
185.877
169.52
153.148
136.792
120.455
104.158
88.0074
72.3141
57.758
45.0407
34.2478
25.2193
17.9546
12.511
8.86772
6.96023
6.73161
8.19791
11.4084
16.7802
24.8048
38.7778
58.8769
79.5643
49.3943
14.5886
-23.8932
-64.2682
-107.483
-152.371
-197.785
-243.215
-287.711
-330.42
-370.647
-407.629
-440.686
-469.245
-492.79
-510.842
-523.009
-528.956
-528.496
-521.619
-508.545
-489.845
-466.538
-440.05
-412.151
-383.861
-354.849
-324.86
-294.137
-262.825
-230.919
-198.412
-165.176
-131.035
-95.0526
-57.028
-11.6866
31.8922
106.735
132.609
159.022
184.94
208.04
227.888
243.465
253.962
259.257
259.719
255.984
248.83
238.963
227.043
213.667
199.278
184.235
168.809
153.166
137.392
121.54
105.673
89.9158
74.5684
60.222
47.5161
36.6256
27.459
20.0239
14.3825
10.5298
8.41426
7.98765
9.2714
12.3209
17.5481
25.422
39.0781
58.1648
78.9183
51.5267
19.8546
-15.1355
-51.7525
-91.0757
-132.032
-173.619
-215.504
-256.877
-296.996
-335.279
-371.019
-403.547
-432.257
-456.58
-475.961
-489.976
-498.243
-500.48
-496.578
-486.673
-471.211
-451.061
-427.449
-401.862
-375.319
-347.772
-319.057
-289.406
-259
-227.865
-196.012
-163.333
-129.671
-94.1358
-56.5825
-11.9894
30.6068
103.623
127.094
151.182
174.928
196.173
214.614
229.382
239.65
245.279
246.627
244.204
238.643
230.504
220.317
208.572
195.639
181.844
167.454
152.656
137.573
122.301
106.936
91.6232
76.6532
62.5558
49.9156
38.9697
29.6933
22.1084
16.2832
12.2289
9.90867
9.28317
10.3802
13.2614
18.332
26.0361
39.3312
57.4106
76.9008
51.8218
22.7861
-9.26672
-42.7066
-78.6799
-116.214
-154.404
-193.062
-231.48
-269.036
-305.254
-339.494
-371.126
-399.557
-424.19
-444.435
-459.804
-469.856
-474.234
-472.762
-465.53
-452.89
-435.576
-414.626
-391.274
-366.487
-340.421
-313.004
-284.46
-254.994
-224.665
-193.498
-161.404
-128.249
-93.1915
-56.1505
-12.3947
29.1417
99.5529
121.038
143.193
165.118
184.792
202.045
216.086
226.096
231.944
233.966
232.591
228.347
221.694
213.054
202.826
191.308
178.779
165.484
151.611
137.307
122.695
107.9
93.0824
78.5284
64.7218
52.2019
41.2475
31.8951
24.1853
18.1946
13.9504
11.4314
10.6089
11.5173
14.225
19.1279
26.6433
39.5359
56.6152
74.0939
50.9981
24.2365
-5.27006
-35.9564
-68.9957
-103.483
-138.601
-174.267
-209.856
-244.858
-278.89
-311.383
-341.785
-369.53
-394.019
-414.664
-430.937
-442.376
-448.583
-449.292
-444.522
-434.521
-419.888
-401.491
-380.343
-357.34
-332.784
-306.696
-279.292
-250.801
-221.311
-190.864
-159.388
-126.771
-92.2261
-55.7329
-12.8918
27.5291
94.9909
114.783
135.288
155.653
173.978
190.199
203.582
213.31
219.286
221.816
221.273
218.11
212.717
205.437
196.59
186.412
175.129
162.954
150.061
136.603
122.721
108.557
94.2855
80.187
66.713
54.3661
43.4512
34.0578
26.25
20.1134
15.692
12.9814
11.9644
12.6823
15.2108
19.9344
27.2417
39.6919
55.7804
70.7994
49.4172
24.6286
-2.66599
-30.9534
-61.4217
-93.2186
-125.601
-158.546
-191.51
-224.078
-255.952
-286.63
-315.631
-342.44
-366.491
-387.201
-404.034
-416.489
-424.159
-426.69
-424.043
-416.384
-404.187
-388.163
-369.138
-347.913
-324.88
-300.138
-273.905
-246.42
-217.802
-188.106
-157.282
-125.237
-91.2426
-55.334
-13.4748
25.7934
90.1791
108.515
127.592
146.605
163.755
179.063
191.837
201.276
207.308
210.214
210.327
208.049
203.718
197.618
190.009
181.073
170.987
159.923
148.036
135.471
122.373
108.896
95.217
81.6132
68.5136
56.3905
45.5636
36.1671
28.2901
22.0298
17.4465
14.5531
13.3457
13.8724
16.2165
20.749
27.8287
39.7997
54.9097
67.2391
47.3594
24.305
-1.0435
-27.2242
-55.4196
-84.8219
-114.746
-145.22
-175.761
-206.028
-235.797
-264.635
-292.133
-317.828
-341.195
-361.683
-378.762
-391.911
-400.726
-404.79
-403.999
-398.44
-388.473
-374.667
-357.684
-338.222
-316.718
-293.337
-268.299
-241.851
-214.135
-185.224
-155.084
-123.646
-90.2426
-54.958
-14.1423
23.9502
85.2928
102.358
120.184
138.004
154.119
168.609
180.814
189.961
195.99
199.171
199.802
198.244
194.802
189.716
183.205
175.402
166.442
156.459
145.579
133.932
121.659
108.912
95.8683
82.7982
70.1132
58.2623
47.5713
38.2109
30.2957
23.9357
19.2074
16.142
14.7495
15.085
17.2397
21.5694
28.4019
39.8603
54.006
63.5591
45.0054
23.4889
-0.134491
-24.4503
-50.6252
-77.8912
-105.607
-133.842
-162.166
-190.289
-218.052
-245.083
-271.039
-295.516
-318.039
-338.093
-355.168
-368.741
-378.411
-383.727
-384.515
-380.798
-372.837
-361.075
-346.031
-328.295
-308.315
-286.302
-262.478
-237.094
-210.309
-182.214
-152.793
-121.998
-89.2267
-54.6078
-14.8906
22.008
80.4364
96.3849
113.1
129.857
145.05
158.797
170.47
179.324
185.31
188.684
189.719
188.746
186.046
181.829
176.279
169.496
161.578
152.627
142.737
132.015
120.59
108.606
96.233
83.733
71.5016
59.9682
49.4603
40.1762
32.2552
25.8214
20.9674
17.7423
16.1713
16.3166
18.2776
22.393
28.9591
39.8746
53.073
59.8572
42.485
22.3441
0.262578
-22.389
-46.7573
-72.109
-97.8357
-124.042
-150.338
-176.473
-202.342
-227.628
-252.044
-275.25
-296.819
-316.275
-333.141
-346.907
-357.172
-363.486
-365.602
-363.489
-357.323
-347.436
-334.22
-318.161
-299.688
-279.043
-256.447
-232.149
-206.324
-179.077
-150.408
-120.293
-88.1953
-54.2866
-15.7157
19.9748
75.6837
90.6357
106.359
122.158
136.523
149.589
160.759
169.326
175.235
178.739
180.088
179.59
177.507
174.029
169.314
163.441
156.478
148.496
139.561
129.754
119.185
107.984
96.3111
84.413
72.6706
61.4974
51.2179
42.0505
34.1574
27.6773
22.7184
19.3478
17.6064
17.5635
19.327
23.2169
29.4979
39.8448
52.1142
56.1983
39.8892
20.9864
0.293203
-20.8655
-43.6102
-67.2351
-91.1686
-115.533
-139.969
-164.27
-188.367
-211.991
-234.908
-256.825
-277.37
-296.113
-312.612
-326.383
-337.023
-344.103
-347.313
-346.576
-341.996
-333.809
-322.3
-307.853
-290.86
-271.574
-250.214
-227.022
-202.181
-175.811
-147.929
-118.531
-87.1485
-53.9944
-16.6135
17.86
71.0803
85.1362
99.9622
114.896
128.507
140.944
151.642
159.923
165.733
169.316
170.907
170.792
169.221
166.371
162.38
157.313
151.214
144.13
136.102
127.185
117.467
107.06
96.1066
84.8361
73.6142
62.84
52.8317
43.8215
35.9908
29.4931
24.4519
20.9516
19.0492
18.8214
20.3844
24.0382
30.0161
39.7726
51.134
52.627
37.282
19.5006
0.0652625
-19.7463
-41.0215
-63.0834
-85.3921
-108.08
-130.817
-153.429
-175.877
-197.929
-219.398
-240.04
-259.527
-277.479
-293.489
-307.108
-317.936
-325.575
-329.668
-330.095
-326.901
-320.244
-310.316
-297.405
-281.855
-263.912
-243.788
-221.716
-197.883
-172.418
-145.355
-116.711
-86.0864
-53.7317
-17.5775
15.6726
66.6537
79.8988
93.909
108.052
120.973
132.827
143.079
151.079
156.772
160.395
162.169
162.363
161.217
158.897
155.532
151.171
145.849
139.589
132.411
124.348
115.464
105.849
95.6258
85.0033
74.3297
63.989
54.2915
45.4774
37.7439
31.2585
26.1588
22.5462
20.4938
20.0856
21.4457
24.8536
30.5117
39.6607
50.1365
49.174
34.7063
17.9468
-0.341499
-18.931
-38.8697
-59.5128
-80.3428
-101.502
-122.687
-143.745
-164.657
-185.234
-205.322
-224.718
-243.141
-260.252
-275.688
-289.031
-299.892
-307.906
-312.691
-314.087
-312.09
-306.796
-298.317
-286.858
-272.701
-256.076
-237.182
-216.239
-193.433
-168.899
-142.688
-114.834
-85.009
-53.4969
-18.6007
13.4221
62.4199
74.9275
88.1904
101.606
113.892
125.202
135.031
142.756
148.318
151.952
153.862
154.303
153.509
151.638
148.81
145.069
140.439
134.928
128.539
121.285
113.207
104.373
94.8814
84.9195
74.8156
64.9384
55.5881
47.0073
39.4056
32.9627
27.8298
24.1237
21.9335
21.3507
22.5065
25.6599
30.9828
39.512
49.1259
45.8579
32.1932
16.3727
-0.868299
-18.3399
-37.0614
-56.408
-75.8899
-95.652
-115.413
-135.039
-154.533
-173.73
-192.51
-210.705
-228.073
-244.32
-259.117
-272.086
-282.855
-291.086
-296.393
-298.579
-297.604
-293.51
-286.35
-276.248
-263.427
-248.087
-230.411
-210.6
-188.836
-165.257
-139.927
-112.901
-83.9155
-53.2884
-19.6749
11.1205
58.3871
70.219
82.7944
95.5394
107.237
118.037
127.464
134.92
140.344
143.962
145.97
146.609
146.107
144.615
142.248
139.048
135.03
130.196
124.533
118.037
110.729
102.654
93.8885
84.5926
75.0742
65.6854
56.714
48.4015
40.9652
34.5953
29.455
25.6756
23.3612
22.611
23.5621
26.4535
31.4277
39.3296
48.1078
42.6896
29.7646
14.8076
-1.46774
-17.9169
-35.5205
-53.6803
-71.9264
-90.4101
-108.864
-127.172
-145.352
-163.263
-180.809
-197.855
-214.193
-229.569
-243.689
-256.211
-266.789
-275.101
-280.781
-283.598
-283.479
-280.432
-274.459
-265.616
-254.064
-239.969
-223.491
-204.81
-184.098
-161.495
-137.076
-110.911
-82.8056
-53.1039
-20.791
8.77964
54.5583
65.7675
77.7069
89.8302
100.977
111.3
120.345
127.539
132.818
136.402
138.478
139.274
139.013
137.841
135.87
133.14
129.664
125.436
120.434
114.643
108.063
100.719
92.6635
84.0328
75.1104
66.2293
57.664
49.6515
42.4127
36.1459
31.0247
27.193
24.7692
23.8602
24.6074
27.2308
31.8448
39.1168
47.0868
39.6758
27.435
13.2761
-2.10791
-17.6145
-34.1908
-51.258
-68.3708
-85.6793
-102.931
-120.023
-136.988
-153.7
-170.087
-186.041
-201.384
-215.896
-229.319
-241.343
-251.649
-259.931
-265.854
-269.158
-269.747
-267.602
-262.687
-255.001
-244.646
-231.748
-216.441
-198.882
-179.229
-157.619
-134.137
-108.867
-81.6783
-52.9401
-21.9396
6.4117
50.932
61.5655
72.914
84.4589
95.0913
104.962
113.645
120.583
125.713
129.251
131.37
132.29
132.227
131.327
129.695
127.373
124.373
120.685
116.283
111.14
105.241
98.5939
91.2279
83.2544
74.9312
66.5713
58.4347
50.7502
43.739
37.6047
32.5289
28.667
26.1495
25.0916
25.637
27.9881
32.2329
38.8771
46.0678
36.8184
25.2127
11.7956
-2.76215
-17.3985
-33.0253
-49.0858
-65.1542
-81.3802
-97.5244
-113.497
-129.335
-144.934
-160.236
-175.155
-189.544
-203.209
-215.926
-227.416
-237.388
-245.552
-251.606
-255.27
-256.433
-255.056
-251.074
-244.442
-235.206
-223.451
-209.282
-192.831
-174.238
-153.635
-131.112
-106.769
-80.532
-52.7925
-23.1102
4.0303
47.5062
57.6037
68.4012
79.4054
89.5547
98.9988
107.336
114.027
119.007
122.485
124.628
125.645
125.746
125.074
123.733
121.765
119.183
115.976
112.114
107.563
102.297
96.3073
89.6041
82.2727
74.5457
66.7152
59.0245
51.6922
44.936
38.9621
33.958
30.088
27.4938
26.298
26.6453
28.7217
32.5907
38.614
45.0561
34.1175
23.1035
10.3766
-3.41184
-17.2408
-31.9883
-47.1169
-62.2211
-77.4457
-92.5681
-107.505
-122.302
-136.865
-151.154
-165.1
-178.576
-191.42
-203.434
-214.368
-223.961
-231.936
-238.026
-241.941
-243.556
-242.824
-239.658
-233.977
-225.779
-215.107
-202.037
-186.673
-169.137
-149.55
-128.007
-104.619
-79.3655
-52.6563
-24.2916
1.64966
44.2746
53.8723
64.1539
74.651
84.3456
93.3868
101.394
107.844
112.673
116.084
118.237
119.328
119.564
119.085
117.993
116.333
114.116
111.335
107.957
103.943
99.2606
93.8867
87.8139
81.1047
73.9659
66.6672
59.4344
52.4739
45.9972
40.2096
35.3024
31.447
28.7936
27.472
27.6264
29.4276
32.9172
38.3308
44.0565
31.571
21.1093
9.02802
-4.04247
-17.1222
-31.051
-45.3156
-59.5259
-73.8254
-88.0008
-101.98
-115.811
-129.413
-142.755
-155.786
-168.397
-180.45
-191.772
-202.142
-211.322
-219.053
-225.099
-229.17
-231.135
-230.933
-228.472
-223.64
-216.397
-206.746
-194.73
-180.428
-163.938
-145.372
-124.825
-102.418
-78.1765
-52.5259
-25.4734
-0.716924
41.2307
50.362
60.1593
70.1786
79.4448
88.1038
95.7956
102.012
106.691
110.029
112.178
113.325
113.673
113.358
112.48
111.085
109.189
106.783
103.837
100.309
96.1608
91.3589
85.8813
79.7697
73.2054
66.4352
59.6672
53.0934
46.9169
41.3395
36.5534
32.7346
30.0403
28.606
28.5742
30.1021
33.2117
38.0309
43.0739
29.1753
19.2309
7.75439
-4.64407
-17.0244
-30.1912
-43.6516
-57.0323
-70.4726
-83.7723
-96.8638
-109.8
-122.506
-134.965
-147.137
-158.93
-170.226
-180.873
-190.676
-199.422
-206.87
-212.806
-216.955
-219.175
-219.403
-217.544
-213.467
-207.095
-198.398
-187.387
-174.115
-158.657
-141.113
-121.574
-100.167
-76.9633
-52.3943
-26.6437
-3.05477
38.368
47.0611
56.4034
65.9728
74.8336
83.1289
90.5187
96.5095
101.04
104.302
106.437
107.625
108.064
107.888
107.193
106.029
104.413
102.338
99.7763
96.6856
93.0236
88.7497
83.83
78.2873
72.279
66.0291
59.7273
53.5509
47.6915
42.3452
37.7028
33.9422
31.2251
29.6921
29.4827
30.7414
33.4736
37.7174
42.1126
26.9252
17.4674
6.5589
-5.20945
-16.9352
-29.3905
-42.1005
-54.7087
-67.3512
-79.8371
-92.1047
-104.208
-116.084
-127.72
-139.087
-150.108
-160.682
-170.676
-179.919
-188.218
-195.354
-201.128
-205.287
-207.684
-208.252
-206.901
-203.485
-197.902
-190.091
-180.033
-167.755
-153.311
-136.782
-118.259
-97.8708
-75.7227
-52.2548
-27.7907
-5.34986
35.6791
43.9604
52.8731
62.0168
70.4935
78.4429
85.5441
91.3176
95.7024
98.8835
100.998
102.216
102.729
102.67
102.133
101.169
99.7977
98.0145
95.7931
93.0939
89.8724
86.0825
81.6817
76.677
71.2024
65.4603
59.6215
53.8479
48.3187
43.2215
38.743
35.0611
32.3398
30.7227
30.3457
31.3415
33.7021
37.3929
41.1766
24.816
15.8166
5.44256
-5.73368
-16.8459
-28.635
-40.6437
-52.5313
-64.4306
-76.1592
-87.6615
-98.9915
-110.093
-120.962
-131.575
-141.869
-151.757
-161.124
-169.818
-177.667
-184.47
-190.044
-194.158
-196.663
-197.494
-196.564
-193.724
-188.85
-181.854
-172.695
-161.371
-147.915
-132.393
-114.887
-95.5288
-74.4533
-52.0991
-28.9026
-7.58813
33.1564
41.0492
49.556
58.296
66.4085
74.0288
80.853
86.417
90.659
93.7583
95.8452
97.0829
97.6579
97.6977
97.2965
96.5062
95.3482
93.8211
91.9017
89.5519
86.7275
83.3791
79.4579
74.9576
69.992
64.741
59.3577
53.9881
48.7979
43.9643
39.6679
36.0838
33.3763
31.6903
31.157
31.8989
33.8967
37.0601
40.2695
22.8426
14.275
4.40571
-6.21317
-16.749
-27.9129
-39.2651
-50.4793
-61.6849
-72.7074
-83.4974
-94.1078
-104.489
-114.642
-124.551
-134.161
-143.4
-152.167
-160.327
-167.727
-174.184
-179.528
-183.554
-186.109
-187.135
-186.551
-184.208
-179.965
-173.717
-165.397
-154.984
-142.488
-127.957
-111.466
-93.1461
-73.1518
-51.9199
-29.9693
-9.75628
30.7919
38.3179
46.4403
54.7978
62.5638
69.8707
76.4293
81.7909
85.8934
88.9104
90.9655
92.2148
92.8392
92.9633
92.6794
92.0399
91.0686
89.7665
88.1137
86.0749
83.6069
80.6593
77.1789
73.1493
68.6646
63.8847
58.9451
53.9765
49.13
44.571
40.4719
37.0033
34.327
32.5875
31.9107
32.4098
34.0569
36.7206
39.394
20.9989
12.8398
3.44662
-6.64558
-16.6395
-27.2156
-37.9516
-48.5363
-59.0929
-69.457
-79.5827
-89.5234
-99.2333
-108.718
-117.968
-126.936
-135.562
-143.757
-151.401
-158.359
-164.464
-169.558
-173.46
-176.019
-177.181
-176.876
-174.956
-171.273
-165.705
-158.167
-148.618
-137.048
-123.489
-108.006
-90.7241
-71.8163
-51.71
-30.9787
-11.8414
28.5779
35.757
43.5153
51.5089
58.9452
65.9532
72.257
77.4233
81.3899
84.3245
86.3449
87.5994
88.264
88.4595
88.2766
87.7682
86.9598
85.8553
84.4377
82.6749
80.5257
77.9407
74.8635
71.2696
67.2366
62.9049
58.3941
53.8194
49.3173
45.0405
41.1514
37.8135
35.1848
33.4076
32.6014
32.8707
34.1822
36.3764
38.5524
19.2788
11.5065
2.56404
-7.03042
-16.5137
-26.5368
-36.6934
-46.6873
-56.6367
-66.3856
-75.8906
-85.2065
-94.2911
-103.152
-111.786
-120.153
-128.2
-135.851
-143.001
-149.526
-155.278
-160.108
-163.859
-166.385
-167.634
-167.548
-165.987
-162.796
-157.843
-151.03
-142.296
-131.615
-119.002
-104.514
-88.2671
-70.4442
-51.4595
-31.921
-13.8306
26.5071
33.3572
40.7696
48.4169
55.5392
62.2617
68.3216
73.2993
77.1338
79.9866
81.9697
83.2243
83.9212
84.1777
84.0815
83.6872
83.0213
82.09
80.8797
79.3616
77.4972
75.2382
72.5277
69.3353
65.7235
61.8156
57.7157
53.5246
49.3639
45.3732
41.7034
38.5097
35.9437
34.1441
33.2235
33.2784
34.272
36.0282
37.7459
17.6768
10.2708
1.75577
-7.36787
-16.3689
-25.8702
-35.4818
-44.9204
-54.3005
-63.4732
-72.3989
-81.131
-89.6318
-97.9115
-105.969
-113.772
-121.275
-128.411
-135.087
-141.193
-146.595
-151.155
-154.736
-157.196
-158.493
-158.577
-157.315
-154.553
-150.153
-144.007
-136.038
-126.207
-114.513
-101
-85.779
-69.0333
-51.1627
-32.7855
-15.7125
24.5721
31.1096
38.1934
45.5111
52.3335
58.7832
64.6091
69.4051
73.1114
75.8832
77.8273
79.0781
79.8001
80.1086
80.0879
79.7928
79.2516
78.472
77.4441
76.1424
74.5313
72.5648
70.1866
67.362
64.141
60.6308
56.9215
53.1004
49.2749
45.5707
42.1268
39.0881
36.5987
34.7916
33.7724
33.6297
34.3255
35.6768
36.9751
16.1867
9.12856
1.01891
-7.65836
-16.2037
-25.2125
-34.3102
-43.2269
-52.0724
-60.7055
-69.0888
-77.2754
-85.231
-92.9671
-100.486
-107.76
-114.752
-121.401
-127.626
-133.328
-138.387
-142.674
-146.071
-148.443
-149.753
-149.963
-148.95
-146.561
-142.656
-137.12
-129.867
-120.843
-110.035
-97.475
-83.2634
-67.5825
-50.8118
-33.5638
-17.4778
22.7655
29.0062
35.7771
42.7804
49.3166
55.5053
61.1063
65.7279
69.3099
72.0022
73.9057
75.1492
75.8913
76.2435
76.2881
76.0795
75.6473
75.0009
74.1333
73.0227
71.6366
69.9315
67.8531
65.3639
62.5033
59.3639
56.0233
52.5562
49.0564
45.6361
42.4214
39.5463
37.1456
35.3454
34.2438
33.9219
34.342
35.3222
36.2399
14.803
8.07521
0.350687
-7.90322
-16.0174
-24.5605
-33.1735
-41.599
-49.9423
-58.0686
-65.9442
-73.6203
-81.0662
-88.2941
-95.31
-102.089
-108.6
-114.791
-120.587
-125.902
-130.627
-134.643
-137.846
-140.112
-141.41
-141.71
-140.9
-138.833
-135.369
-130.39
-123.803
-115.542
-105.583
-93.948
-80.7252
-66.0911
-50.4006
-34.2479
-19.1181
21.0806
27.0389
33.5116
40.2146
46.4774
52.4163
57.8016
62.2552
65.7165
68.3309
70.1936
71.4272
72.1846
72.5736
72.6746
72.5417
72.2046
71.6751
70.9485
70.0062
68.8193
67.3473
65.5384
63.3538
60.8236
58.0279
55.0329
51.9017
48.7157
45.5736
42.5887
39.8832
37.5815
35.8016
34.6341
34.1523
34.3206
34.9639
35.539
13.5197
7.10621
-0.25203
-8.10395
-15.8096
-23.912
-32.067
-40.0291
-47.8998
-55.5503
-62.9502
-70.1485
-77.1177
-83.8712
-90.4159
-96.7321
-102.792
-108.55
-113.942
-118.887
-123.288
-127.038
-130.043
-132.191
-133.456
-133.815
-133.17
-131.379
-128.307
-123.835
-117.863
-110.32
-101.172
-90.4294
-78.1695
-64.5575
-49.9239
-34.8306
-20.6252
19.5105
25.2
31.3883
37.8045
43.8058
49.5055
54.6839
58.9751
62.3202
64.8583
66.6798
67.901
68.6696
69.0902
69.2399
69.1727
68.9191
68.4916
67.8889
67.0949
66.0841
64.8194
63.2519
61.3426
59.1141
56.635
53.9617
51.1471
48.2608
45.3887
42.6314
40.0989
37.9048
36.1575
34.9404
34.3188
34.2604
34.601
34.8707
12.3314
6.21715
-0.792525
-8.26236
-15.5805
-23.2658
-30.9875
-38.5127
-45.9378
-53.1412
-60.0944
-66.8451
-73.3679
-79.6776
-85.7823
-91.6651
-97.3023
-102.655
-107.663
-112.257
-116.348
-119.837
-122.643
-124.665
-125.881
-126.276
-125.762
-124.208
-121.483
-117.468
-112.064
-105.194
-96.8151
-86.9294
-75.6014
-62.9834
-49.3768
-35.3061
-21.9936
18.0489
23.4822
29.399
35.5411
41.292
46.7626
51.7419
55.8772
59.1097
61.5731
63.3532
64.5605
65.3369
65.7839
65.9759
65.9661
65.7851
65.4474
64.9531
64.2895
63.4341
62.3532
61.0011
59.3398
57.3856
55.1968
52.821
50.3025
47.7
45.0875
42.5532
40.1951
38.1149
36.4114
35.1606
34.4197
34.1605
34.2323
34.2326
11.2329
5.40354
-1.2741
-8.38057
-15.331
-22.6207
-29.9328
-37.0451
-44.0505
-50.833
-57.3668
-63.6978
-69.803
-75.6973
-81.3902
-86.8674
-92.1086
-97.0792
-101.727
-105.988
-109.782
-113.021
-115.63
-117.522
-118.676
-119.088
-118.678
-117.325
-114.905
-111.303
-106.421
-100.178
-92.5259
-83.458
-73.0267
-61.369
-48.7569
-35.6708
-23.2186
16.6896
21.8783
27.5358
33.4156
38.927
44.1778
48.966
52.9511
56.0747
58.4651
60.2042
61.3958
62.1774
62.6467
62.8751
62.9151
62.7978
62.5385
62.1391
61.59
60.8712
59.9529
58.7928
57.3538
55.6477
53.7236
51.6215
49.378
47.0421
44.6771
42.3592
40.1743
38.2127
36.5629
35.2934
34.4537
34.0197
33.8562
33.6216
10.2187
4.66112
-1.70017
-8.46075
-15.0619
-21.9763
-28.9002
-35.6224
-42.2322
-48.6183
-54.758
-60.6952
-66.4089
-71.9148
-77.2226
-82.3205
-87.1909
-91.8036
-96.1117
-100.058
-103.571
-106.569
-108.986
-110.745
-111.831
-112.243
-111.915
-110.733
-108.581
-105.351
-100.946
-95.2858
-88.3164
-80.0247
-70.4514
-59.7164
-48.0623
-35.921
-24.2971
15.4265
20.3819
25.7914
31.4204
36.7023
41.7422
46.3465
50.1866
53.2051
55.5247
57.2229
58.3978
59.182
59.6694
59.9293
60.0127
59.951
59.7601
59.4439
58.9949
58.3962
57.6213
56.6315
55.3917
53.9088
52.2249
50.3732
48.3834
46.2963
44.1652
42.0551
40.0404
38.2003
36.6126
35.3385
34.4202
33.8373
33.4707
33.034
9.28388
3.98566
-2.07405
-8.5053
-14.7744
-21.3328
-27.8889
-34.2423
-40.4781
-46.4911
-52.2599
-57.8276
-63.1744
-68.3164
-73.2641
-78.0074
-82.531
-86.8086
-90.798
-94.4485
-97.6942
-100.463
-102.693
-104.32
-105.333
-105.735
-105.469
-104.432
-102.516
-99.62
-95.6505
-90.5283
-84.1974
-76.6387
-67.8812
-58.0283
-47.292
-36.0557
-25.2276
14.2542
18.9866
24.159
29.5476
34.6095
39.4469
43.8745
47.5752
50.4918
52.7422
54.3998
55.5573
56.342
56.8443
57.1309
57.252
57.2387
57.1075
56.8639
56.5025
56.0091
55.3604
54.5213
53.4588
52.1763
50.7092
49.0852
47.3282
45.4717
43.5598
41.6476
39.7985
38.0809
36.5623
35.2963
34.3187
33.6123
33.0736
32.4661
8.42373
3.37307
-2.39899
-8.51634
-14.4698
-20.69
-26.8975
-32.9019
-38.7844
-44.4456
-49.8658
-55.0865
-60.0894
-64.8908
-69.5016
-73.913
-78.1126
-82.0767
-85.7676
-89.1394
-92.1337
-94.6838
-96.736
-98.2341
-99.17
-99.5536
-99.3343
-98.4202
-96.712
-94.1152
-90.5419
-85.9154
-80.1791
-73.3083
-65.3227
-56.3083
-46.4471
-36.0743
-26.0096
13.167
17.6864
22.6317
27.7901
32.6411
37.2841
41.5415
45.1078
47.9259
50.1091
51.7263
52.8654
53.6487
54.163
54.4724
54.6261
54.6548
54.5756
54.3952
54.1101
53.7091
53.171
52.4648
51.5597
50.4564
49.1843
47.7663
46.2216
44.5772
42.8693
41.1439
39.4543
37.8587
36.4146
35.1685
34.1498
33.3442
32.6628
31.9136
7.63361
2.81919
-2.67818
-8.49634
-14.1498
-20.0483
-25.9252
-31.5991
-37.1481
-42.4777
-47.5698
-52.4643
-57.1447
-61.6274
-65.9229
-70.0243
-73.9211
-77.592
-81.0037
-84.1145
-86.872
-89.216
-91.0983
-92.4715
-93.3306
-93.6896
-93.5051
-92.6952
-91.1692
-88.8403
-85.6266
-81.4554
-76.2698
-70.0418
-62.7822
-54.5602
-45.5296
-35.9785
-26.6447
12.1598
16.4755
21.2034
26.141
30.7898
35.246
39.3397
42.7761
45.4991
47.6167
49.194
50.3141
51.0941
51.6178
51.9465
52.1281
52.1932
52.1591
52.0337
51.8151
51.4943
51.0532
50.4641
49.6983
48.7544
47.6568
46.4243
45.0721
43.6216
42.1022
40.5518
39.0145
37.5388
36.1733
34.9572
33.9143
33.0324
32.2361
31.3723
6.90904
2.32038
-2.91487
-8.44771
-13.8154
-19.4084
-24.9715
-30.3326
-35.5662
-40.5829
-45.3659
-49.9541
-54.3321
-58.5161
-62.517
-66.3289
-69.9429
-73.3402
-76.4908
-79.3577
-81.8931
-84.0435
-85.7651
-87.0187
-87.8021
-88.1324
-87.9735
-87.2519
-85.8862
-83.7972
-80.9092
-77.154
-72.4766
-66.8463
-60.2657
-52.789
-44.5428
-35.7708
-27.1353
11.2276
15.3485
19.8681
24.5941
29.0487
33.3255
37.2615
40.5726
43.2035
45.257
46.7949
47.8953
48.6705
49.2012
49.5458
49.7514
49.8479
49.8528
49.7749
49.6141
49.3631
49.0067
48.5202
47.8771
47.0746
46.1326
45.0665
43.8877
42.6135
41.2672
39.8794
38.4861
37.1273
35.8429
34.6655
33.6137
32.6769
31.7913
30.8381
6.24581
1.87284
-3.11203
-8.37277
-13.4686
-18.771
-24.0362
-29.1011
-34.0363
-38.7578
-43.2501
-47.5503
-51.6446
-55.5489
-59.2742
-62.8155
-66.1656
-69.3078
-72.2152
-74.8542
-77.1822
-79.151
-80.7218
-81.8616
-82.5717
-82.8714
-82.7307
-82.0843
-80.8598
-78.9851
-76.3916
-73.016
-68.8055
-63.7279
-57.7794
-50.9999
-43.491
-35.4553
-27.4851
10.3658
14.3002
18.6205
23.1433
27.4115
31.5155
35.2996
38.4898
41.0314
43.0225
44.5213
45.6016
46.3706
46.9059
47.2638
47.4896
47.6129
47.6514
47.6146
47.5037
47.3132
47.0304
46.6334
46.0985
45.4209
44.6169
43.699
42.6759
41.561
40.3726
39.1349
37.8769
36.6308
35.4288
34.2972
33.2501
32.2778
31.3266
30.3067
5.63981
1.47309
-3.27264
-8.27379
-13.1107
-18.1369
-23.1191
-27.9033
-32.5567
-36.9994
-41.2178
-45.2474
-49.0756
-52.7179
-56.1855
-59.4745
-62.5783
-65.4827
-68.1635
-70.5904
-72.7251
-74.5242
-75.954
-76.9869
-77.627
-77.8952
-77.7672
-77.1853
-76.0851
-74.4021
-72.0744
-69.0438
-65.2609
-60.6923
-55.329
-49.1986
-42.3796
-35.037
-27.6993
9.56985
13.3258
17.4547
21.7827
25.8718
29.8097
33.4475
36.5209
38.9758
40.9059
42.3661
43.4256
44.1872
44.7253
45.0936
45.3363
45.4825
45.5497
45.5482
45.4802
45.3419
45.1228
44.8039
44.3635
43.7959
43.1139
42.3276
41.4436
40.4719
39.4266
38.3266
37.1948
36.0565
34.9369
33.8569
32.8263
31.8359
30.8402
29.7745
5.08728
1.11763
-3.39945
-8.15304
-12.7431
-17.5067
-22.2205
-26.7386
-31.1252
-35.3048
-39.2652
-43.0404
-46.6189
-50.0161
-53.2429
-56.2962
-59.1708
-61.8539
-64.3238
-66.5535
-68.5084
-70.15
-71.4484
-72.3814
-72.9551
-73.1921
-73.073
-72.5467
-71.5562
-70.0447
-67.9566
-65.2391
-61.8458
-57.7442
-52.9203
-47.3909
-41.2145
-34.5222
-27.784
8.83544
12.4205
16.366
20.507
24.4241
28.2022
31.6987
34.6589
37.0299
38.9005
40.3225
41.3606
42.1136
42.6525
43.0289
43.2856
43.451
43.5426
43.5711
43.54
43.4467
43.2825
43.0313
42.6733
42.2022
41.6276
40.9576
40.1972
39.3535
38.4372
37.4628
36.4478
35.4116
34.3736
33.3494
32.3453
31.352
30.3309
29.238
4.58448
0.803346
-3.49531
-8.01256
-12.3678
-16.8813
-21.3401
-25.606
-29.7403
-33.6717
-37.3891
-40.9251
-44.2695
-47.4371
-50.4389
-53.2723
-55.9335
-58.4107
-60.6848
-62.7314
-64.5196
-66.0153
-67.1919
-68.0323
-68.544
-68.7509
-68.6375
-68.1595
-67.2665
-65.9083
-64.0358
-61.6016
-58.5626
-54.8871
-50.5581
-45.5829
-40.0025
-33.918
-27.746
8.15857
11.5799
15.3495
19.3109
23.0625
26.6867
30.047
32.8981
35.1873
36.9997
38.3837
39.4001
40.1434
40.6814
41.0637
41.3317
41.5131
41.6252
41.6792
41.6794
41.6245
41.5076
41.3149
41.0286
40.6415
40.1611
39.5935
38.9423
38.2126
37.4121
36.5515
35.644
34.7039
33.7456
32.7802
31.8108
30.8278
29.7978
28.694
4.12795
0.527125
-3.56282
-7.85448
-11.9859
-16.2615
-20.4782
-24.5051
-28.4008
-32.0978
-35.5861
-38.8973
-42.0222
-44.975
-47.7667
-50.3952
-52.8577
-55.1437
-57.236
-59.1131
-60.7472
-62.1079
-63.1721
-63.9267
-64.3811
-64.5595
-64.4502
-64.0144
-63.2079
-61.9869
-60.3084
-58.1297
-55.4118
-52.1241
-48.2472
-43.7808
-38.7507
-33.232
-27.5931
7.53539
10.7998
14.4008
18.1896
21.7822
25.2582
28.4869
31.2322
33.4421
35.1976
36.5439
37.5381
38.2705
38.8062
39.1923
39.4692
39.6637
39.7928
39.8682
39.8948
39.8726
39.7961
39.6536
39.4292
39.1154
38.7171
38.2393
37.6843
37.0555
36.3583
35.6004
34.7913
33.9411
33.0599
32.1549
31.2266