/*--------------------------------*- C++ -*----------------------------------*\
  =========                 |
  \\      /  F ield         | OpenFOAM: The Open Source CFD Toolbox
   \\    /   O peration     | Website:  https://openfoam.org
    \\  /    A nd           | Version:  7
     \\/     M anipulation  |
\*---------------------------------------------------------------------------*/
FoamFile
{
    version     2.0;
    format      ascii;
    class       surfaceScalarField;
    location    "300";
    object      phi;
}
// * * * * * * * * * * * * * * * * * * * * * * * * * * * * * * * * * * * * * //

dimensions      [0 3 -1 0 0 0 0];

internalField   nonuniform List<scalar> 
21254
(
-0.241961
0.261472
-0.0195107
0.283434
-0.0219626
0.30223
-0.0187955
0.318972
-0.0167417
0.334804
-0.015832
0.347399
-0.0125954
0.357308
-0.00990896
0.365339
-0.00803149
0.370572
-0.00523287
0.374081
-0.00350912
0.37612
-0.00203861
0.376516
-0.000395879
0.375629
0.000886799
0.373425
0.00220451
0.369844
0.00358103
0.365178
0.00466543
0.359251
0.00592727
0.352169
0.00708145
0.343799
0.0083708
0.33438
0.00941823
0.323599
0.0107819
0.312035
0.0115639
0.299962
0.0120731
0.28869
0.0112719
0.279419
0.0092709
0.271462
0.0079563
0.263692
0.00777076
0.25579
0.0079013
0.247425
0.00836565
0.238508
0.00891713
0.229014
0.00949406
0.218934
0.0100792
0.208205
0.0107293
0.196587
0.0116178
0.183554
0.0130333
0.168047
0.0155073
0.147709
0.0203376
0.11711
0.0305996
0.0951924
0.0219183
-0.218862
-0.0230993
-0.194969
-0.0238925
-0.165517
-0.0294522
-0.133133
-0.0323839
-0.0989329
-0.0342003
-0.0635123
-0.0354206
-0.0284482
-0.0350641
0.00413555
-0.0325838
0.0336476
-0.029512
0.0598156
-0.0261681
0.0821997
-0.0223841
0.10122
-0.0190202
0.117226
-0.0160063
0.130583
-0.0133572
0.142011
-0.0114271
0.151842
-0.00983182
0.160561
-0.00871828
0.168404
-0.00784296
0.175685
-0.00728111
0.18253
-0.00684532
0.189112
-0.00658196
0.195423
-0.00631106
0.201396
-0.00597281
0.206405
-0.00500945
0.210265
-0.00385933
0.213252
-0.00298708
0.215364
-0.00211205
0.216718
-0.00135374
0.217327
-0.000609488
0.217135
0.000191878
0.216045
0.00108969
0.214193
0.0018523
0.211703
0.00248991
0.208638
0.00306475
0.204858
0.00378034
0.199936
0.00492169
0.192691
0.00724502
0.17778
0.0149114
0.155048
0.0227317
-0.22082
0.242395
-0.0410859
0.264452
-0.0440196
0.287469
-0.0418121
0.308929
-0.0382021
0.329856
-0.0367592
0.349232
-0.031971
0.366658
-0.0273344
0.382394
-0.0237683
0.396036
-0.0188741
0.407642
-0.0151156
0.417234
-0.0116305
0.424953
-0.00811522
0.431112
-0.00527237
0.435862
-0.00254455
0.439082
0.000360479
0.440457
0.00329094
0.439909
0.00647483
0.437566
0.0094249
0.432926
0.0130102
0.426287
0.0160574
0.417252
0.019817
0.40612
0.0226956
0.392891
0.0253022
0.378209
0.0259541
0.363344
0.0241353
0.348744
0.0225565
0.334505
0.0220104
0.320846
0.0215594
0.30759
0.0216222
0.29459
0.0219171
0.281639
0.0224446
0.268579
0.0231393
0.255161
0.0241478
0.241172
0.0256063
0.226219
0.0279865
0.209307
0.0324197
0.189164
0.0404805
0.156908
0.0628554
0.11344
0.0653875
-0.198761
-0.0451585
-0.175124
-0.0475289
-0.147446
-0.0571308
-0.118155
-0.0616744
-0.0870357
-0.0653198
-0.0545208
-0.0679355
-0.0221397
-0.0674452
0.00886548
-0.063589
0.0373661
-0.0580127
0.0627395
-0.0515414
0.0848944
-0.0445389
0.104132
-0.0382576
0.120894
-0.0327684
0.135407
-0.0278704
0.148109
-0.0241296
0.159302
-0.0210246
0.169277
-0.0186926
0.178341
-0.0169073
0.18675
-0.0156899
0.194616
-0.0147121
0.202101
-0.0140668
0.209275
-0.0134851
0.216066
-0.0127632
0.222014
-0.010958
0.226846
-0.00869131
0.230765
-0.00690637
0.233768
-0.005115
0.235906
-0.00349172
0.237226
-0.00192914
0.237875
-0.00045747
0.237956
0.00100926
0.237408
0.00240015
0.236102
0.00379553
0.233994
0.00517254
0.231027
0.00674734
0.226957
0.00899244
0.221763
0.0124389
0.210836
0.0258376
0.189731
0.0438371
-0.21426
0.236002
-0.0628281
0.257896
-0.0659139
0.281519
-0.0654348
0.303114
-0.0597974
0.323641
-0.0572857
0.343285
-0.0516154
0.360754
-0.0448034
0.37646
-0.0394746
0.38996
-0.0323739
0.401542
-0.026697
0.411235
-0.0213238
0.419204
-0.0160839
0.425278
-0.0113468
0.429938
-0.00720434
0.432932
-0.00263392
0.435002
0.00122081
0.435835
0.00564217
0.435778
0.00948206
0.434499
0.0142889
0.431938
0.0186189
0.427977
0.0237779
0.422445
0.0282271
0.415317
0.0324311
0.406686
0.0345841
0.397077
0.0337452
0.38655
0.0330829
0.374999
0.033562
0.362569
0.0339892
0.349434
0.0347569
0.335692
0.0356591
0.32149
0.0366462
0.306861
0.0377686
0.291747
0.0392617
0.275976
0.0413776
0.259159
0.0448032
0.240303
0.051276
0.21823
0.0625536
0.18526
0.095825
0.137682
0.112967
-0.192375
-0.0670432
-0.168379
-0.0715256
-0.13966
-0.0858497
-0.109761
-0.0915728
-0.0785049
-0.0965762
-0.0460417
-0.100399
-0.0139886
-0.0994984
0.0159848
-0.0935624
0.0435494
-0.0855773
0.0685302
-0.0765222
0.0906288
-0.0666375
0.110003
-0.0576315
0.127009
-0.0497748
0.141922
-0.0427832
0.155052
-0.0372597
0.166735
-0.0327077
0.177237
-0.0291948
0.186825
-0.0264948
0.195707
-0.0245715
0.204047
-0.0230524
0.212031
-0.022051
0.219673
-0.0211273
0.226882
-0.0199721
0.233357
-0.0174329
0.238812
-0.0141459
0.243348
-0.0114427
0.247024
-0.0087908
0.249871
-0.0063387
0.251953
-0.00401156
0.253265
-0.00176888
0.253876
0.000397615
0.253782
0.00249432
0.253005
0.00457295
0.251472
0.00670589
0.249078
0.00914118
0.245438
0.0126317
0.240124
0.0177533
0.229437
0.0365243
0.209411
0.0638633
-0.206656
0.22941
-0.0855821
0.252219
-0.0887233
0.277292
-0.0905077
0.30017
-0.0826752
0.322333
-0.0794485
0.343564
-0.0728464
0.363045
-0.0642848
0.38059
-0.0570193
0.396414
-0.0481974
0.410292
-0.0405754
0.422342
-0.0333739
0.432561
-0.0263032
0.440982
-0.0197678
0.447643
-0.0138645
0.452862
-0.00785386
0.45627
-0.00218679
0.458012
0.00390032
0.457845
0.00964917
0.456096
0.0160377
0.452643
0.0220717
0.447634
0.0287872
0.441318
0.0345433
0.433823
0.0399258
0.425655
0.042752
0.417245
0.0421555
0.408648
0.04168
0.399491
0.0427182
0.389626
0.0438542
0.378873
0.0455107
0.367053
0.0474792
0.354162
0.0495367
0.340191
0.05174
0.325141
0.0543115
0.30889
0.0576282
0.291187
0.0625072
0.271084
0.0713785
0.247331
0.086307
0.213052
0.130104
0.164842
0.161177
-0.184184
-0.0895152
-0.160075
-0.095634
-0.130822
-0.115103
-0.100782
-0.121613
-0.0694533
-0.127905
-0.0368802
-0.132972
-0.0049044
-0.131474
0.0246948
-0.123162
0.0517486
-0.112631
0.0763273
-0.101101
0.0980911
-0.0884013
0.117278
-0.0768183
0.134297
-0.0667938
0.149387
-0.0578737
0.162866
-0.050738
0.174956
-0.0447983
0.185948
-0.0401868
0.196021
-0.0365672
0.205404
-0.0339545
0.214236
-0.0318852
0.222631
-0.0304457
0.230654
-0.0291499
0.238245
-0.0275633
0.245086
-0.0242745
0.250937
-0.0199965
0.255857
-0.0163625
0.25989
-0.0128242
0.263086
-0.00953438
0.265476
-0.00640185
0.267118
-0.00341063
0.268039
-0.000523666
0.268265
0.0022683
0.267794
0.00504376
0.266611
0.00788888
0.264596
0.0111566
0.261368
0.0158594
0.256334
0.0227872
0.246147
0.0467121
0.226478
0.0835315
-0.202537
0.226108
-0.109153
0.249802
-0.112418
0.276294
-0.116999
0.299943
-0.106324
0.323135
-0.102641
0.345476
-0.0951867
0.365864
-0.0846732
0.384402
-0.0755576
0.401392
-0.0651872
0.416175
-0.0553583
0.429145
-0.0463436
0.440238
-0.0373969
0.449735
-0.0292639
0.457299
-0.0214294
0.463113
-0.0136672
0.467176
-0.00625045
0.469648
0.0014286
0.470567
0.00873026
0.469687
0.0169177
0.467272
0.0244867
0.463176
0.0328831
0.457539
0.040181
0.450596
0.0468687
0.442745
0.0506028
0.434561
0.050339
0.426252
0.0499892
0.417671
0.0512996
0.408753
0.052772
0.399356
0.0549075
0.389312
0.0575238
0.378371
0.0604777
0.366305
0.0638057
0.3529
0.0677167
0.337867
0.0726608
0.320798
0.0795762
0.300814
0.091362
0.276486
0.110636
0.241494
0.165096
0.193197
0.209474
-0.179023
-0.113029
-0.15421
-0.120448
-0.123716
-0.145597
-0.0928486
-0.15248
-0.0608139
-0.15994
-0.027628
-0.166158
0.00476858
-0.163871
0.03442
-0.152813
0.0612918
-0.139503
0.0856145
-0.125424
0.107088
-0.109875
0.12605
-0.0957797
0.142992
-0.0837364
0.158126
-0.0730077
0.171764
-0.0643759
0.184167
-0.0572015
0.195511
-0.0515308
0.205979
-0.0470349
0.215764
-0.043739
0.225003
-0.0411244
0.23379
-0.039233
0.242166
-0.0375255
0.250095
-0.0354924
0.257303
-0.0314828
0.26353
-0.026224
0.268809
-0.0216408
0.273171
-0.0171859
0.276668
-0.0130316
0.279328
-0.00906248
0.281185
-0.00526733
0.282278
-0.0016167
0.282661
0.00188549
0.282327
0.00537761
0.281238
0.00897764
0.279342
0.0130531
0.276246
0.018955
0.271345
0.0276882
0.261702
0.0563554
0.242702
0.102531
-0.199213
0.223801
-0.133741
0.248826
-0.137442
0.276698
-0.144872
0.301559
-0.131185
0.325773
-0.126855
0.34949
-0.118904
0.37085
-0.106033
0.390676
-0.0953828
0.408654
-0.0831655
0.42467
-0.0713743
0.438953
-0.0606265
0.451312
-0.0497567
0.461972
-0.0399234
0.470908
-0.0303652
0.477979
-0.020738
0.483501
-0.0117728
0.487094
-0.00216415
0.488851
0.00697252
0.488884
0.0168852
0.487015
0.0263557
0.483297
0.0366015
0.477953
0.0455246
0.471138
0.053684
0.463273
0.0584677
0.454874
0.0587373
0.446207
0.0586568
0.437225
0.0602816
0.427943
0.062054
0.418365
0.0644857
0.408418
0.0674701
0.398032
0.0708645
0.386972
0.0748652
0.374969
0.0797197
0.361593
0.0860374
0.346227
0.0949414
0.327688
0.109902
0.304356
0.133967
0.269998
0.199454
0.222217
0.257255
-0.174731
-0.137511
-0.149101
-0.146077
-0.1173
-0.177398
-0.0852938
-0.184486
-0.0522623
-0.192971
-0.0181496
-0.20027
0.0149526
-0.196973
0.0449434
-0.182804
0.07191
-0.16647
0.0961582
-0.149672
0.117451
-0.131167
0.136192
-0.114521
0.152979
-0.100524
0.168069
-0.0880968
0.181764
-0.0780717
0.194323
-0.0697604
0.205905
-0.0631129
0.216701
-0.0578308
0.226837
-0.0538745
0.236439
-0.0507266
0.245599
-0.0483926
0.254337
-0.0462638
0.2626
-0.0437557
0.270203
-0.039086
0.276819
-0.0328393
0.282437
-0.0272592
0.287143
-0.0218917
0.290931
-0.0168198
0.293849
-0.0119807
0.295927
-0.00734503
0.297202
-0.00289204
0.297701
0.00138673
0.297429
0.0056493
0.296402
0.0100045
0.294471
0.0149847
0.291341
0.0220851
0.286321
0.0327081
0.276963
0.0657133
0.25867
0.120824
-0.197195
0.223114
-0.15966
0.249175
-0.163504
0.278619
-0.174316
0.30476
-0.157326
0.330235
-0.15233
0.355032
-0.143701
0.377569
-0.128571
0.398249
-0.116062
0.417283
-0.102199
0.434244
-0.0883356
0.449363
-0.075746
0.462782
-0.0631751
0.474364
-0.0515051
0.484172
-0.0401736
0.492269
-0.0288356
0.498475
-0.0179788
0.502945
-0.00663329
0.50558
0.00433717
0.506405
0.0160601
0.505356
0.0274046
0.502474
0.039484
0.497821
0.0501777
0.491722
0.0597823
0.484363
0.065827
0.476253
0.0668476
0.46763
0.0672798
0.458501
0.0694104
0.4489
0.0716547
0.438913
0.0744725
0.428508
0.0778753
0.417693
0.08168
0.406424
0.0861335
0.394573
0.0915711
0.381805
0.0988052
0.367614
0.109133
0.350792
0.126723
0.329509
0.155251
0.297472
0.23149
0.251234
0.303494
-0.171505
-0.163201
-0.14477
-0.172812
-0.111521
-0.210647
-0.0782076
-0.2178
-0.0439774
-0.227201
-0.00862473
-0.235623
0.0254455
-0.231043
0.0560907
-0.213449
0.0834029
-0.193782
0.107803
-0.174072
0.129021
-0.152385
0.147609
-0.133109
0.164245
-0.117159
0.179224
-0.103076
0.192883
-0.091731
0.205507
-0.082384
0.217261
-0.0748677
0.228288
-0.0688574
0.238718
-0.0643045
0.248642
-0.0606512
0.258131
-0.0578815
0.267198
-0.0553304
0.275818
-0.052376
0.283747
-0.0470147
0.290755
-0.0398474
0.296764
-0.0332687
0.301796
-0.0269229
0.305898
-0.0209222
0.309073
-0.0151558
0.311383
-0.00965437
0.312826
-0.00433536
0.31346
0.000752271
0.313293
0.00581691
0.31227
0.0110271
0.310338
0.0169172
0.307113
0.0253096
0.301907
0.0379143
0.292628
0.0749919
0.27496
0.138492
-0.195906
0.223161
-0.186915
0.250658
-0.191001
0.281787
-0.205445
0.30913
-0.184669
0.335898
-0.179098
0.361949
-0.169752
0.385508
-0.15213
0.407405
-0.137959
0.427256
-0.122051
0.445156
-0.106236
0.461331
-0.0919207
0.475615
-0.0774589
0.488082
-0.0639726
0.498851
-0.0509423
0.507853
-0.0378373
0.515043
-0.0251685
0.520448
-0.0120386
0.523997
0.000787611
0.525604
0.0144539
0.525271
0.0277374
0.523084
0.0416703
0.519047
0.0542155
0.513399
0.0654297
0.506496
0.0727299
0.498663
0.0746807
0.490159
0.0757836
0.481042
0.0785279
0.471314
0.0813824
0.461022
0.0847645
0.45023
0.0886679
0.438887
0.0930221
0.427045
0.0979763
0.41461
0.104006
0.401486
0.11193
0.387281
0.123337
0.37115
0.142854
0.351585
0.174816
0.322777
0.260299
0.279291
0.34698
-0.168985
-0.190121
-0.141093
-0.200704
-0.10613
-0.24561
-0.0712972
-0.252633
-0.035643
-0.262855
0.00107937
-0.272346
0.0363707
-0.266334
0.067882
-0.24496
0.0957297
-0.221629
0.120421
-0.198763
0.141716
-0.173681
0.160222
-0.151616
0.176727
-0.133665
0.191577
-0.117925
0.205151
-0.105306
0.217794
-0.0950267
0.22962
-0.0866938
0.240809
-0.0800458
0.251455
-0.0749512
0.261651
-0.0708468
0.271424
-0.0676547
0.280817
-0.0647235
0.289766
-0.0613245
0.298063
-0.0553116
0.305441
-0.0472253
0.311817
-0.039645
0.317203
-0.0323087
0.321626
-0.0253458
0.325081
-0.0186101
0.327609
-0.0121822
0.329255
-0.00598225
0.330024
-1.58714e-05
0.329944
0.00589662
0.32897
0.0120009
0.326989
0.0188981
0.323672
0.0286265
0.318294
0.0432923
0.309013
0.0842727
0.291957
0.155548
-0.195467
0.224089
-0.215537
0.253035
-0.219947
0.285865
-0.238275
0.3146
-0.213404
0.342841
-0.207339
0.370254
-0.197164
0.395037
-0.176913
0.417821
-0.160744
0.438792
-0.143021
0.45753
-0.124974
0.474417
-0.108807
0.489522
-0.0925643
0.502859
-0.0773093
0.514435
-0.0625186
0.524253
-0.0476548
0.532333
-0.0332488
0.538541
-0.0182468
0.542833
-0.00350389
0.545196
0.0120905
0.545585
0.0273483
0.544081
0.043175
0.540722
0.0575737
0.535679
0.0704728
0.529266
0.0791437
0.521812
0.0821339
0.513527
0.0840693
0.504462
0.0875924
0.494692
0.0911523
0.484279
0.0951781
0.473213
0.0997337
0.461506
0.104729
0.44916
0.110322
0.436123
0.117043
0.422278
0.125775
0.407406
0.138209
0.390869
0.159391
0.371783
0.193902
0.345789
0.286293
0.305502
0.387267
-0.167055
-0.218533
-0.137809
-0.229951
-0.101071
-0.282348
-0.0646791
-0.289024
-0.0273709
-0.300164
0.0109263
-0.310643
0.0476804
-0.303089
0.0802415
-0.277521
0.108811
-0.250199
0.13397
-0.223922
0.155462
-0.195173
0.173994
-0.170147
0.190423
-0.150094
0.205155
-0.132657
0.218627
-0.118777
0.231198
-0.107598
0.243055
-0.0985507
0.254331
-0.0913221
0.265131
-0.0857515
0.275543
-0.0812589
0.2856
-0.0777108
0.295264
-0.0743876
0.304519
-0.0705798
0.313168
-0.063961
0.320936
-0.0549932
0.327666
-0.0463748
0.333409
-0.0380517
0.338135
-0.030072
0.341891
-0.0223658
0.344673
-0.0149639
0.346509
-0.00781892
0.347437
-0.000943194
0.347443
0.00589021
0.346513
0.0129306
0.344531
0.0208803
0.341139
0.0320188
0.335573
0.0488586
0.326309
0.0935358
0.309856
0.172001
-0.195473
0.225709
-0.245773
0.256206
-0.250443
0.290931
-0.273
0.321125
-0.243598
0.350656
-0.236869
0.379545
-0.226054
0.405503
-0.202871
0.429432
-0.184673
0.451392
-0.164981
0.471013
-0.144595
0.488759
-0.126553
0.504746
-0.108551
0.518793
-0.0913561
0.531091
-0.074817
0.541776
-0.0583397
0.550565
-0.042038
0.557555
-0.0252362
0.562603
-0.00855227
0.565767
0.00892618
0.566946
0.0261698
0.566056
0.0440644
0.56335
0.0602801
0.558888
0.0749348
0.552979
0.0850523
0.54588
0.0892331
0.537765
0.0921849
0.528808
0.0965492
0.519055
0.100905
0.508502
0.105731
0.497256
0.110979
0.48527
0.116716
0.472518
0.123074
0.458963
0.130598
0.444484
0.140253
0.428857
0.153837
0.411462
0.176786
0.391766
0.213598
0.36727
0.31079
0.329752
0.424784
-0.165691
-0.248315
-0.134979
-0.260663
-0.0962793
-0.321048
-0.0580276
-0.327276
-0.0190384
-0.339153
0.0210947
-0.350776
0.0593779
-0.341372
0.0931794
-0.311323
0.122642
-0.279661
0.148439
-0.249719
0.170254
-0.216988
0.188883
-0.188776
0.205304
-0.166515
0.219945
-0.147298
0.233305
-0.132137
0.245797
-0.12009
0.257617
-0.11037
0.268918
-0.102624
0.279842
-0.0966746
0.290418
-0.0918354
0.300657
-0.0879498
0.310597
-0.0843279
0.320158
-0.0801403
0.329138
-0.0729409
0.337254
-0.0631096
0.344368
-0.0534884
0.350444
-0.0441274
0.355514
-0.0351424
0.359554
-0.0264058
0.362589
-0.0179988
0.364652
-0.00988223
0.365724
-0.00201488
0.365851
0.00576336
0.364978
0.0138033
0.362977
0.0228817
0.359496
0.0354997
0.353808
0.054546
0.344586
0.102758
0.328711
0.187876
-0.196104
0.227911
-0.277581
0.259986
-0.282518
0.296642
-0.309657
0.328521
-0.275477
0.359671
-0.268019
0.390035
-0.256418
0.417141
-0.229977
0.442302
-0.209834
0.465301
-0.18798
0.485868
-0.165161
0.504409
-0.145094
0.521032
-0.125175
0.535882
-0.106206
0.549029
-0.0879635
0.560305
-0.0696163
0.569873
-0.0516058
0.577584
-0.0329477
0.583423
-0.0143912
0.587249
0.00510033
0.589099
0.02432
0.58893
0.0442336
0.586803
0.062407
0.582922
0.078816
0.577524
0.0904496
0.570826
0.0959311
0.563016
0.0999951
0.55418
0.105386
0.544398
0.110687
0.533797
0.116332
0.522336
0.122441
0.510078
0.128974
0.496996
0.136156
0.483008
0.144586
0.467978
0.155283
0.451648
0.170167
0.433446
0.194988
0.41269
0.234353
0.388507
0.334973
0.352819
0.460473
-0.164646
-0.279773
-0.132427
-0.292882
-0.0916518
-0.361823
-0.051469
-0.367459
-0.010515
-0.380107
0.0314838
-0.392775
0.0715306
-0.381419
0.106722
-0.346515
0.137251
-0.31019
0.163761
-0.27623
0.186041
-0.239268
0.204881
-0.207616
0.22137
-0.183004
0.235953
-0.161881
0.249214
-0.145399
0.261606
-0.132481
0.273358
-0.122123
0.284662
-0.113927
0.295612
-0.107625
0.306299
-0.102523
0.316741
-0.0983916
0.326904
-0.0944906
0.336721
-0.0899574
0.34603
-0.0822499
0.354497
-0.0715771
0.361963
-0.0609543
0.368406
-0.0505706
0.373799
-0.0405356
0.378155
-0.0307619
0.381453
-0.0212961
0.383717
-0.0121461
0.384983
-0.00328152
0.385218
0.00552848
0.38441
0.0146111
0.3824
0.0248926
0.378868
0.0390309
0.373045
0.0603697
0.36388
0.111923
0.348643
0.203113
-0.197056
0.230664
-0.311189
0.2645
-0.316354
0.303196
-0.348353
0.336677
-0.308958
0.369441
-0.300783
0.401393
-0.28837
0.43001
-0.258594
0.456309
-0.236133
0.480384
-0.212056
0.501857
-0.186634
0.5213
-0.164537
0.538792
-0.142667
0.55426
-0.121674
0.568031
-0.101734
0.580083
-0.0816686
0.59034
-0.0618623
0.598712
-0.0413203
0.605186
-0.0208646
0.609694
0.0005925
0.612235
0.021779
0.612742
0.043726
0.611279
0.06387
0.607981
0.0821139
0.603082
0.0953485
0.596773
0.10224
0.589238
0.10753
0.580555
0.114069
0.570846
0.120395
0.560152
0.127026
0.548544
0.134048
0.536026
0.141493
0.522587
0.149594
0.508198
0.158975
0.492656
0.170825
0.475711
0.187113
0.456802
0.213896
0.435019
0.256136
0.410402
0.359591
0.375804
0.495071
-0.16396
-0.312868
-0.130011
-0.326831
-0.0871036
-0.40473
-0.0448295
-0.409733
-0.00183204
-0.423104
0.0422166
-0.436823
0.0842048
-0.423407
0.120894
-0.383203
0.152594
-0.34189
0.180006
-0.303642
0.20286
-0.262122
0.222012
-0.226767
0.238601
-0.199593
0.253191
-0.176472
0.266377
-0.158585
0.278673
-0.144777
0.290329
-0.133779
0.30158
-0.125178
0.312555
-0.1186
0.323303
-0.113271
0.333864
-0.108952
0.344207
-0.104834
0.354298
-0.100048
0.363907
-0.0918589
0.372713
-0.080383
0.380531
-0.0687726
0.387313
-0.0573525
0.393053
-0.0462761
0.397693
-0.0354019
0.401274
-0.0248767
0.403774
-0.0146462
0.405209
-0.00471695
0.405589
0.00514858
0.404834
0.0153667
0.402839
0.0268873
0.399247
0.0426233
0.393316
0.0663003
0.384275
0.120963
0.369695
0.217694
-0.198511
0.233828
-0.346506
0.269525
-0.352052
0.310381
-0.389209
0.345719
-0.344295
0.380238
-0.335302
0.413832
-0.321964
0.443871
-0.288633
0.471509
-0.263771
0.496649
-0.237195
0.519111
-0.209097
0.539392
-0.184817
0.557624
-0.160899
0.573915
-0.137965
0.588394
-0.116213
0.601064
-0.0943389
0.611918
-0.0727159
0.620963
-0.0503657
0.628127
-0.028028
0.633296
-0.00457632
0.636408
0.0186664
0.637546
0.0425882
0.636666
0.0647498
0.633933
0.0848467
0.629583
0.0996989
0.623767
0.108056
0.61653
0.114768
0.608051
0.122548
0.598397
0.13005
0.587658
0.137765
0.575913
0.145793
0.563167
0.154239
0.549399
0.163362
0.534564
0.17381
0.518509
0.18688
0.50097
0.204652
0.481408
0.233458
0.458812
0.278732
0.433525
0.384878
0.399576
0.52902
-0.163494
-0.347885
-0.127886
-0.362439
-0.0826113
-0.450006
-0.0381476
-0.454197
0.00709558
-0.468347
0.0534098
-0.483137
0.0973607
-0.467358
0.135752
-0.421595
0.16875
-0.374888
0.197167
-0.332059
0.220691
-0.285645
0.240241
-0.246317
0.257055
-0.216408
0.271702
-0.191118
0.284844
-0.171727
0.297051
-0.156985
0.30861
-0.145339
0.319782
-0.136349
0.330714
-0.129533
0.341498
-0.124054
0.352141
-0.119596
0.362651
-0.115344
0.37295
-0.110347
0.382851
-0.10176
0.391972
-0.0895042
0.400129
-0.0769292
0.407253
-0.0644771
0.413302
-0.0523253
0.418267
-0.0403663
0.422125
-0.0287351
0.424871
-0.0173922
0.426512
-0.00635829
0.427023
0.00463813
0.426358
0.016032
0.424368
0.0288774
0.420755
0.0462361
0.414746
0.072309
0.405795
0.129915
0.391922
0.231566
-0.200209
0.237472
-0.383769
0.275136
-0.389715
0.318293
-0.432366
0.355522
-0.381525
0.391825
-0.371605
0.427181
-0.35732
0.45877
-0.320222
0.487724
-0.292724
0.5141
-0.263572
0.537562
-0.232559
0.558812
-0.206068
0.577833
-0.179919
0.594838
-0.154971
0.609994
-0.131369
0.62321
-0.107555
0.634748
-0.0842536
0.644416
-0.0600341
0.652173
-0.0357851
0.657995
-0.0103977
0.661772
0.0148886
0.663492
0.0408684
0.663224
0.0650176
0.661068
0.0870032
0.657224
0.103543
0.651828
0.113452
0.64492
0.121676
0.636677
0.13079
0.627146
0.139581
0.616396
0.148514
0.604526
0.157664
0.591544
0.167221
0.577463
0.177443
0.562191
0.189082
0.545646
0.203425
0.527509
0.222789
0.507302
0.253666
0.483952
0.302082
0.458069
0.410761
0.424614
0.562475
-0.163414
-0.38468
-0.125759
-0.400093
-0.0781058
-0.497659
-0.0312649
-0.501038
0.016289
-0.515901
0.0649334
-0.531782
0.111149
-0.513573
0.151324
-0.46177
0.185793
-0.409358
0.215316
-0.361581
0.239622
-0.309951
0.259645
-0.26634
0.276737
-0.2335
0.291487
-0.205868
0.304613
-0.184853
0.316761
-0.169132
0.328232
-0.15681
0.339296
-0.147412
0.35017
-0.140407
0.360949
-0.134833
0.371648
-0.130295
0.382267
-0.125963
0.392768
-0.120848
0.402921
-0.111913
0.412337
-0.0989206
0.420814
-0.085406
0.42827
-0.0719331
0.43466
-0.058715
0.439936
-0.0456427
0.444078
-0.032877
0.447067
-0.0203808
0.448899
-0.0081912
0.449567
0.00397019
0.448993
0.0166065
0.447033
0.0308369
0.443394
0.049875
0.437342
0.0783616
0.428566
0.13869
0.415387
0.244745
-0.202223
0.241595
-0.42314
0.281282
-0.429402
0.326853
-0.477937
0.366039
-0.420711
0.404276
-0.409842
0.441589
-0.394633
0.474707
-0.35334
0.505109
-0.323126
0.532847
-0.291309
0.557414
-0.257126
0.579555
-0.228209
0.599428
-0.199792
0.617067
-0.17261
0.632903
-0.147205
0.646875
-0.121527
0.658982
-0.0963601
0.669255
-0.0703068
0.677584
-0.0441148
0.683895
-0.0167087
0.688245
0.0105394
0.690579
0.0385337
0.690835
0.0647622
0.689235
0.0886029
0.685916
0.106862
0.68099
0.118378
0.674488
0.128178
0.666457
0.138821
0.657063
0.148974
0.646373
0.159205
0.63441
0.169627
0.621237
0.180393
0.606834
0.191846
0.591191
0.204725
0.574131
0.220485
0.555374
0.241545
0.534513
0.274527
0.510517
0.326078
0.48406
0.437218
0.45113
0.595405
-0.163425
-0.423479
-0.123894
-0.439624
-0.0735781
-0.547975
-0.0242537
-0.550362
0.0257908
-0.565946
0.0770025
-0.582994
0.125507
-0.562078
0.167664
-0.503926
0.203654
-0.445348
0.234439
-0.392367
0.259601
-0.335113
0.280226
-0.286964
0.297672
-0.250946
0.312593
-0.22079
0.325768
-0.198028
0.337857
-0.181221
0.349231
-0.168184
0.360215
-0.158396
0.371005
-0.151198
0.381734
-0.145562
0.392449
-0.14101
0.403169
-0.136683
0.413832
-0.13151
0.42421
-0.122291
0.433918
-0.108629
0.442695
-0.0941829
0.450469
-0.0797067
0.457166
-0.0654125
0.462753
-0.0512296
0.467169
-0.0372931
0.470419
-0.0236307
0.47248
-0.0102519
0.473291
0.00315891
0.472834
0.0170635
0.470924
0.0327478
0.467277
0.0535215
0.46121
0.0844285
0.452583
0.147318
0.440151
0.257177
-0.204608
0.246139
-0.464671
0.287955
-0.471218
0.336041
-0.526023
0.377295
-0.461965
0.417654
-0.450201
0.456924
-0.433903
0.49175
-0.388167
0.523712
-0.355089
0.552748
-0.320345
0.578415
-0.282792
0.601553
-0.251347
0.622305
-0.220545
0.640821
-0.191126
0.65729
-0.163673
0.671852
-0.136089
0.684544
-0.109052
0.695369
-0.0811316
0.704257
-0.0530031
0.711217
-0.0236691
0.716088
0.00566918
0.718918
0.0357029
0.719761
0.0639194
0.718661
0.0897031
0.71584
0.109682
0.711354
0.122864
0.705224
0.134308
0.697501
0.146544
0.688277
0.158198
0.677627
0.169856
0.665605
0.181649
0.652272
0.193726
0.637608
0.20651
0.621551
0.220781
0.603997
0.23804
0.584666
0.260875
0.563175
0.296018
0.538512
0.350741
0.511553
0.464176
0.47917
0.627789
-0.163643
-0.464444
-0.121965
-0.481301
-0.0689479
-0.600993
-0.016994
-0.602316
0.0356947
-0.618634
0.0895931
-0.636892
0.140596
-0.613081
0.184824
-0.548155
0.222515
-0.483039
0.254623
-0.424475
0.280777
-0.361267
0.302046
-0.308233
0.319904
-0.268804
0.335063
-0.235948
0.348315
-0.21128
0.3604
-0.193306
0.371694
-0.179478
0.382575
-0.169278
0.393274
-0.161896
0.403948
-0.156236
0.414647
-0.151709
0.425411
-0.147446
0.43621
-0.14231
0.446816
-0.132897
0.456768
-0.118582
0.465822
-0.103237
0.473896
-0.0877804
0.480903
-0.0724195
0.486795
-0.0571217
0.49151
-0.0420085
0.495016
-0.0271371
0.497275
-0.0125108
0.498281
0.0021537
0.49793
0.0174143
0.496083
0.0345942
0.492454
0.0571511
0.486391
0.0904913
0.477974
0.155734
0.46632
0.268831
-0.207205
0.250955
-0.508422
0.295103
-0.515366
0.345872
-0.576792
0.389362
-0.505454
0.431883
-0.492723
0.473189
-0.475208
0.509874
-0.424852
0.54345
-0.388665
0.573869
-0.350763
0.600771
-0.309694
0.625046
-0.275622
0.646657
-0.242156
0.66594
-0.210409
0.683141
-0.180874
0.698304
-0.151252
0.711597
-0.122346
0.722963
-0.0924974
0.732417
-0.062457
0.739846
-0.0310979
0.745275
0.00024047
0.748612
0.0323653
0.749925
0.0626068
0.749358
0.0902701
0.747015
0.112026
0.74301
0.126869
0.737251
0.140067
0.729818
0.153977
0.720791
0.167225
0.710214
0.180433
0.698183
0.19368
0.684707
0.207202
0.669794
0.221423
0.653383
0.237192
0.635356
0.256067
0.615474
0.280757
0.593312
0.31818
0.568048
0.376005
0.540631
0.491593
0.508765
0.659656
-0.164017
-0.507631
-0.12013
-0.525189
-0.0642441
-0.656878
-0.00945616
-0.657104
0.0460059
-0.674096
0.102711
-0.693597
0.15642
-0.66679
0.202832
-0.594567
0.242356
-0.522562
0.275903
-0.458022
0.303104
-0.388468
0.325109
-0.330237
0.343482
-0.287178
0.358924
-0.251389
0.372307
-0.224663
0.384425
-0.205424
0.395673
-0.190727
0.406465
-0.180069
0.417065
-0.172497
0.42765
-0.166821
0.438323
-0.162382
0.449111
-0.158234
0.460017
-0.153215
0.47079
-0.143669
0.480965
-0.128757
0.490294
-0.112565
0.498647
-0.0961338
0.505962
-0.0797341
0.512139
-0.0632987
0.51714
-0.0470097
0.520905
-0.030902
0.523409
-0.0150146
0.52458
0.000981925
0.524351
0.0176438
0.522591
0.0363545
0.518989
0.0607524
0.512995
0.0964863
0.504781
0.163948
0.493885
0.279727
-0.210129
0.256282
-0.554574
0.302871
-0.561955
0.356326
-0.630248
0.402284
-0.551412
0.446974
-0.537413
0.490552
-0.518787
0.529088
-0.463388
0.564381
-0.423958
0.596344
-0.382726
0.624556
-0.337907
0.649816
-0.300883
0.672466
-0.264805
0.692515
-0.230458
0.710435
-0.198794
0.726333
-0.16715
0.740167
-0.13618
0.752112
-0.104442
0.762069
-0.0724147
0.770051
-0.0390799
0.775934
-0.00564261
0.779745
0.0285543
0.781582
0.06077
0.781433
0.0904189
0.779555
0.113904
0.775964
0.13046
0.770589
0.145442
0.763481
0.161085
0.754677
0.176029
0.744254
0.190856
0.732215
0.205719
0.718628
0.22079
0.703482
0.236568
0.686732
0.253942
0.668274
0.274525
0.647809
0.301222
0.625066
0.340924
0.5992
0.40187
0.571306
0.519487
0.539981
0.690981
-0.1646
-0.55316
-0.118331
-0.571458
-0.0593633
-0.715846
-0.00166844
-0.714799
0.0567871
-0.732552
0.116502
-0.753312
0.172949
-0.723237
0.221788
-0.643406
0.263217
-0.563992
0.298354
-0.49316
0.326715
-0.416829
0.349545
-0.353067
0.368476
-0.306108
0.384263
-0.267176
0.397833
-0.238234
0.409994
-0.217585
0.421236
-0.201969
0.431938
-0.19077
0.442438
-0.182997
0.452934
-0.177317
0.46355
-0.172998
0.474341
-0.169025
0.485331
-0.164206
0.496261
-0.154599
0.506645
-0.139142
0.516199
-0.122119
0.524809
-0.104744
0.53239
-0.0873145
0.538866
-0.0697747
0.544136
-0.0522797
0.548174
-0.0349398
0.550891
-0.0177317
0.552267
-0.000394096
0.552199
0.0177115
0.550504
0.0380492
0.546997
0.0642598
0.541063
0.10242
0.533128
0.171883
0.523004
0.28985
-0.213287
0.261968
-0.603256
0.311028
-0.611014
0.367552
-0.686772
0.415821
-0.59968
0.463035
-0.584627
0.50888
-0.564633
0.549526
-0.504033
0.586551
-0.460983
0.620098
-0.416273
0.649644
-0.367452
0.676185
-0.327424
0.699765
-0.288385
0.720757
-0.25145
0.739432
-0.217469
0.755961
-0.183679
0.770416
-0.150636
0.782879
-0.116905
0.793321
-0.0828563
0.801736
-0.0474952
0.808105
-0.0120116
0.812412
0.0242477
0.814623
0.0585594
0.814924
0.0901174
0.8135
0.115327
0.810328
0.133632
0.805375
0.150395
0.798585
0.167875
0.790005
0.184609
0.779697
0.201164
0.767717
0.2177
0.754055
0.234452
0.738712
0.251911
0.721655
0.270999
0.70277
0.29341
0.681811
0.322182
0.658476
0.364259
0.632051
0.428295
0.603728
0.547809
0.572903
0.721807
-0.16529
-0.601157
-0.116518
-0.620231
-0.0543333
-0.77803
0.00642757
-0.77556
0.0680219
-0.794146
0.130924
-0.816214
0.190375
-0.782688
0.241688
-0.694719
0.285188
-0.607492
0.321978
-0.52995
0.351604
-0.446455
0.375345
-0.376808
0.394904
-0.325667
0.411111
-0.283384
0.424914
-0.252037
0.437184
-0.229854
0.448417
-0.213202
0.459067
-0.20142
0.469472
-0.193402
0.479895
-0.18774
0.490427
-0.18353
0.501213
-0.179812
0.512252
-0.175245
0.523311
-0.165658
0.533877
-0.149708
0.543627
-0.131869
0.552494
-0.113611
0.560334
-0.0951539
0.567058
-0.0764993
0.572626
-0.0578478
0.576911
-0.0392241
0.579871
-0.0206919
0.581422
-0.00194546
0.581507
0.017627
0.579951
0.0396049
0.576513
0.067698
0.570722
0.108211
0.563042
0.179563
0.553707
0.299185
-0.216737
0.268036
-0.654554
0.319768
-0.662747
0.379345
-0.746349
0.430337
-0.650672
0.479995
-0.634284
0.528371
-0.613009
0.571034
-0.546696
0.610014
-0.499963
0.645259
-0.451518
0.676291
-0.398484
0.704009
-0.355142
0.728743
-0.313119
0.750616
-0.273324
0.770088
-0.23694
0.78726
-0.200851
0.802357
-0.165732
0.815331
-0.129879
0.82626
-0.0937854
0.835182
-0.0564175
0.841962
-0.0187916
0.846656
0.0195534
0.849297
0.0559189
0.850001
0.0894132
0.848978
0.116351
0.846223
0.136387
0.841623
0.154995
0.835153
0.174344
0.826865
0.192898
0.816731
0.211298
0.80479
0.229641
0.791072
0.24817
0.775584
0.267398
0.758258
0.288325
0.738979
0.312689
0.717537
0.343624
0.693651
0.388145
0.666702
0.455244