/*--------------------------------*- C++ -*----------------------------------*\
  =========                 |
  \\      /  F ield         | OpenFOAM: The Open Source CFD Toolbox
   \\    /   O peration     | Website:  https://openfoam.org
    \\  /    A nd           | Version:  7
     \\/     M anipulation  |
\*---------------------------------------------------------------------------*/
FoamFile
{
    version     2.0;
    format      ascii;
    class       volVectorField;
    location    "300";
    object      U;
}
// * * * * * * * * * * * * * * * * * * * * * * * * * * * * * * * * * * * * * //

dimensions      [0 1 -1 0 0 0 0];

internalField   nonuniform List<vector> 
10720
(
(0.350124 28.5678 1.69997e-17)
(2.17501 30.8425 -1.5768e-17)
(4.4446 33.0276 0)
(7.0396 34.7023 -4.1257e-16)
(9.89629 35.9623 4.62181e-16)
(12.9475 36.765 3.3335e-16)
(16.0358 37.0069 4.56288e-16)
(19.0677 36.7304 0)
(21.9651 35.9991 0)
(24.6505 34.8527 0)
(27.0954 33.3727 1.17537e-16)
(29.2881 31.6506 0)
(31.1992 29.7061 2.37387e-15)
(32.8241 27.5769 0)
(34.152 25.2934 0)
(35.1955 22.9024 0)
(35.9423 20.4237 -4.00178e-15)
(36.3964 17.9093 -5.98238e-15)
(36.539 15.3832 5.32248e-15)
(36.3809 12.9057 0)
(35.9046 10.5128 4.37615e-15)
(35.1466 8.27752 -8.57424e-15)
(34.1542 6.25145 4.27005e-15)
(33.037 4.49784 -1.28061e-16)
(31.9939 3.06443 0)
(31.11 1.89863 1.69354e-15)
(30.289 0.912175 2.62054e-17)
(29.4322 0.0635661 -7.42015e-16)
(28.5026 -0.669992 -2.70888e-15)
(27.4964 -1.30324 -9.83435e-15)
(26.4171 -1.84281 4.38328e-15)
(25.2681 -2.29204 7.99212e-15)
(24.0475 -2.65199 6.89459e-15)
(22.7467 -2.92319 2.35664e-14)
(21.3189 -3.10142 -9.53515e-15)
(19.7269 -3.18482 -6.74531e-17)
(17.6697 -3.12142 2.20676e-17)
(15.2474 -2.89767 3.9577e-15)
(9.82806 -2.32924 1.36809e-14)
(-1.106 26.1283 1.11646e-18)
(-2.29651 23.3686 -8.5021e-18)
(-3.15272 20.2535 4.56611e-17)
(-3.53861 16.629 -1.36715e-16)
(-3.29905 12.8755 -4.69943e-16)
(-2.38773 9.12481 8.40553e-16)
(-0.864866 5.65385 4.18914e-15)
(1.03144 2.7574 2.56783e-15)
(3.01373 0.384942 0)
(5.21736 -1.68942 0)
(7.49953 -3.25664 2.08562e-15)
(9.6231 -4.27836 7.61504e-16)
(11.5097 -4.87486 -1.26786e-15)
(13.1639 -5.17324 1.04417e-15)
(14.6099 -5.27524 1.72296e-15)
(15.8801 -5.24674 1.11056e-15)
(17.0047 -5.13698 1.41762e-15)
(18.0161 -4.97598 9.41174e-16)
(18.945 -4.7844 0)
(19.8139 -4.5658 0)
(20.641 -4.32204 -1.30016e-15)
(21.4376 -4.04306 -5.99239e-17)
(22.2058 -3.71365 8.82351e-16)
(22.9154 -3.30308 -6.15118e-16)
(23.5006 -2.80607 2.36265e-17)
(23.943 -2.25995 0)
(24.268 -1.69098 1.04788e-16)
(24.4918 -1.1151 0)
(24.6206 -0.543576 0)
(24.6535 0.0121434 2.00469e-17)
(24.5678 0.543858 0)
(24.3769 1.04466 4.64762e-18)
(24.0999 1.50857 -5.02239e-17)
(23.7517 1.93014 -5.94131e-16)
(23.3271 2.30549 5.47148e-16)
(22.816 2.63527 -2.76839e-18)
(22.093 2.91175 0)
(21.0893 3.09649 5.17723e-15)
(18.2558 3.23121 9.24385e-15)
(7.07944 24.8194 -5.4898e-18)
(9.01108 26.5579 -2.75244e-18)
(11.3596 28.1285 0)
(14.0558 29.4272 0)
(16.9505 30.394 -1.35669e-16)
(20.0479 30.9684 -3.19511e-16)
(23.2296 31.1064 0)
(26.3603 30.831 0)
(29.384 30.154 6.74192e-16)
(32.2119 29.1266 0)
(34.7898 27.8101 2.47307e-15)
(37.0877 26.2524 0)
(39.1002 24.5358 8.82878e-16)
(40.8344 22.7136 -8.69813e-16)
(42.2956 20.805 1.7494e-15)
(43.4523 18.8389 -3.49781e-15)
(44.304 16.8277 3.74299e-15)
(44.8405 14.7966 3.42513e-15)
(45.0622 12.7542 3.35425e-15)
(44.9517 10.7318 2.0383e-16)
(44.5101 8.75533 -3.5022e-15)
(43.729 6.87989 3.32559e-15)
(42.6344 5.1471 -1.87624e-16)
(41.2625 3.61473 0)
(39.7224 2.33443 0)
(38.1623 1.25247 0)
(36.64 0.291291 1.41304e-16)
(35.1464 -0.559108 -3.15673e-17)
(33.6829 -1.3013 1.98553e-15)
(32.2443 -1.94186 3.76474e-17)
(30.8147 -2.48352 -2.98224e-17)
(29.3765 -2.92883 -8.71708e-17)
(27.9109 -3.28014 4.74644e-15)
(26.4028 -3.53984 -7.96622e-15)
(24.8121 -3.70789 -4.32908e-17)
(23.1199 -3.78537 -9.22462e-15)
(21.0681 -3.73186 0)
(18.8761 -3.54698 -1.14506e-15)
(13.5873 -2.78699 7.25087e-15)
(5.44187 22.9646 6.96971e-18)
(4.01573 20.899 -3.91697e-17)
(2.75487 18.4777 -4.93704e-16)
(1.78721 15.7238 6.07577e-16)
(1.28892 12.7322 0)
(1.34646 9.63557 -1.31257e-15)
(1.98917 6.62849 -9.40253e-16)
(3.14439 3.93676 -7.34493e-15)
(4.63401 1.59141 2.3708e-15)
(6.3712 -0.363682 -1.79201e-15)
(8.24567 -1.80162 2.25189e-15)
(10.0948 -2.76292 -6.40738e-16)
(11.8294 -3.36545 0)
(13.417 -3.70905 -4.27892e-16)
(14.8489 -3.87659 5.24788e-17)
(16.1358 -3.92154 -9.54477e-16)
(17.2931 -3.8891 0)
(18.3437 -3.80504 0)
(19.3113 -3.6877 -9.87814e-17)
(20.2183 -3.53501 9.48832e-17)
(21.0802 -3.34536 -1.12291e-15)
(21.9092 -3.10244 -1.21325e-16)
(22.7071 -2.78648 5.32991e-17)
(23.4507 -2.36091 5.94104e-16)
(24.0861 -1.83859 -4.21365e-16)
(24.5888 -1.28631 -3.10591e-16)
(24.9745 -0.732844 0)
(25.2561 -0.189333 0)
(25.4369 0.337818 0)
(25.5222 0.839768 8.5503e-18)
(25.5413 1.3089 0)
(25.4904 1.74221 0)
(25.3591 2.13861 1.24232e-16)
(25.1408 2.4971 2.20163e-16)
(24.8273 2.81944 -4.4358e-16)
(24.4272 3.11098 8.14658e-16)
(23.8395 3.36966 -2.50253e-15)
(23.2497 3.5892 -3.96588e-15)
(21.1558 3.62546 -6.22465e-15)
(8.36044 22.8474 -9.75874e-19)
(9.76548 24.3708 1.9891e-17)
(11.468 25.847 -1.6257e-17)
(13.4208 27.2013 -4.37613e-17)
(15.5682 28.3152 -1.7821e-16)
(17.9107 29.164 6.15619e-16)
(20.3734 29.708 -4.30427e-16)
(22.8798 29.9105 -5.0238e-16)
(25.3749 29.7701 4.39449e-18)
(27.8007 29.2991 -6.51881e-16)
(30.1053 28.519 6.04207e-16)
(32.2572 27.4593 -1.56836e-15)
(34.2289 26.1516 -7.48381e-16)
(36.0068 24.6247 0)
(37.5742 22.914 -1.79025e-15)
(38.9457 21.0446 3.59623e-15)
(40.126 19.037 0)
(41.0955 16.935 -6.80818e-15)
(41.8443 14.7683 -3.40356e-15)
(42.3448 12.5892 3.96804e-16)
(42.5844 10.4356 -3.93224e-16)
(42.5418 8.37549 -1.78246e-16)
(42.2182 6.45804 -2.53305e-15)
(41.6218 4.74588 1.27268e-15)
(40.8037 3.28408 0)
(39.8416 2.0166 1.11174e-15)
(38.7569 0.874474 -1.31314e-16)
(37.5437 -0.142429 0)
(36.22 -1.03099 1.74576e-15)
(34.8132 -1.79557 3.24054e-15)
(33.344 -2.43904 -5.71309e-15)
(31.8259 -2.96541 -4.91761e-15)
(30.2619 -3.3798 -1.0566e-16)
(28.6476 -3.68697 -6.98864e-15)
(26.9486 -3.88925 -5.60503e-15)
(25.1468 -3.98627 8.04457e-15)
(23.0003 -3.94504 0)
(20.7324 -3.72183 -8.96497e-16)
(15.8578 -3.03293 -1.10439e-14)
(7.20551 21.2388 -1.24636e-17)
(6.18774 19.4757 -5.01048e-17)
(5.32681 17.3958 1.9459e-16)
(4.62681 15.0609 0)
(4.23686 12.5504 3.80342e-16)
(4.20683 9.92989 0)
(4.56689 7.3261 2.70006e-15)
(5.30334 4.90477 1.63507e-15)
(6.36688 2.74762 1.54224e-15)
(7.6995 0.909448 0)
(9.18568 -0.555021 -2.26333e-15)
(10.7083 -1.65878 -4.8512e-16)
(12.1917 -2.45812 2.19481e-15)
(13.595 -3.01133 0)
(14.8987 -3.37102 -1.02198e-15)
(16.0999 -3.58197 -3.08575e-16)
(17.2042 -3.68337 1.27344e-15)
(18.2243 -3.7025 6.6002e-16)
(19.1767 -3.65879 1.81601e-16)
(20.0782 -3.55844 -9.84459e-17)
(20.941 -3.40454 1.02347e-15)
(21.7738 -3.18912 0)
(22.5768 -2.89906 0)
(23.3307 -2.51267 2.32877e-17)
(23.9918 -2.04321 0)
(24.5367 -1.53898 6.42771e-16)
(24.9756 -1.01943 -8.45825e-18)
(25.3199 -0.492417 -4.05993e-17)
(25.5731 0.0342667 0)
(25.7369 0.550517 -2.54694e-17)
(25.8165 1.04887 3.89051e-17)
(25.8173 1.52291 0)
(25.7415 1.96663 -8.2186e-17)
(25.5891 2.37481 0)
(25.3482 2.74559 0)
(25.0178 3.07965 3.87667e-17)
(24.4863 3.37605 -5.22187e-17)
(23.8742 3.59335 3.96352e-15)
(21.9998 3.63011 1.20441e-14)
(10.9045 20.9352 -9.98376e-18)
(12.2016 22.2351 -6.28798e-18)
(13.752 23.4978 -7.12112e-18)
(15.5306 24.6489 -1.18942e-17)
(17.4879 25.5979 0)
(19.6301 26.3262 0)
(21.8996 26.7908 -7.18353e-16)
(24.2339 26.9576 8.58565e-16)
(26.586 26.82 0)
(28.8998 26.3812 -1.03533e-15)
(31.1237 25.6564 -1.30957e-15)
(33.2194 24.669 -1.23653e-15)
(35.1527 23.4496 1.47226e-15)
(36.8968 22.0317 1.38769e-15)
(38.4326 20.4487 0)
(39.7448 18.7348 2.19992e-15)
(40.8055 16.9322 7.61528e-16)
(41.6054 15.0734 6.13811e-15)
(42.1421 13.1845 3.71775e-16)
(42.4211 11.294 -3.68659e-16)
(42.45 9.43336 3.11555e-15)
(42.2443 7.64695 -5.10176e-16)
(41.8317 5.97551 2.77735e-15)
(41.2483 4.46356 1.15922e-15)
(40.5499 3.14284 -6.86157e-17)
(39.7935 1.97604 -1.00579e-15)
(38.982 0.908574 7.42446e-18)
(38.0825 -0.0639537 -7.44839e-18)
(37.076 -0.937912 -1.67248e-15)
(35.9561 -1.71373 -4.42753e-17)
(34.7205 -2.38759 2.7925e-15)
(33.3723 -2.9552 -4.7516e-15)
(31.9161 -3.4139 -3.83718e-15)
(30.3571 -3.76231 -1.88793e-18)
(28.6736 -3.99878 5.09846e-15)
(26.8564 -4.11767 0)
(24.6863 -4.08958 4.19002e-15)
(22.3493 -3.82428 7.76468e-16)
(17.7247 -3.17687 4.60606e-15)
(9.80967 19.5726 -2.5241e-17)
(8.82348 18.0915 6.49028e-17)
(7.95233 16.3425 2.9254e-16)
(7.21618 14.3633 0)
(6.7426 12.2259 -3.39574e-16)
(6.57028 9.97354 0)
(6.72533 7.70423 -2.17176e-15)
(7.19604 5.55072 -1.014e-16)
(7.95262 3.58326 1.12585e-15)
(8.95725 1.85385 1.00301e-15)
(10.126 0.415594 3.61196e-17)
(11.3762 -0.721238 1.69228e-15)
(12.6455 -1.58523 -1.10046e-15)
(13.8895 -2.21633 3.48755e-16)
(15.0804 -2.65444 1.1902e-15)
(16.2051 -2.93913 1.31033e-15)
(17.2597 -3.10492 -1.17452e-15)
(18.2478 -3.17924 5.32719e-18)
(19.1787 -3.18211 0)
(20.0636 -3.12323 1.22166e-15)
(20.9119 -3.00614 5.98469e-17)
(21.7297 -2.82563 -9.18805e-16)
(22.5163 -2.57096 0)
(23.2553 -2.22548 2.20576e-17)
(23.9105 -1.79641 0)
(24.4588 -1.32223 -3.01995e-16)
(24.906 -0.825748 0)
(25.2619 -0.31879 3.80971e-17)
(25.5308 0.18852 -1.2091e-18)
(25.7148 0.685691 6.83361e-19)
(25.8183 1.16372 -3.52553e-17)
(25.8466 1.61505 -1.15467e-18)
(25.8029 2.03557 0)
(25.6889 2.42276 1.87945e-16)
(25.4951 2.77666 3.4719e-18)
(25.2206 3.09724 -8.21717e-16)
(24.7594 3.38507 5.08279e-15)
(24.2013 3.57149 1.21225e-17)
(22.5057 3.59743 0)
(12.4703 19.4726 -1.4317e-17)
(13.5717 20.6237 -3.37075e-19)
(14.895 21.7636 -1.19037e-17)
(16.4053 22.8288 1.67393e-16)
(18.0602 23.7364 -5.64946e-17)
(19.8813 24.4803 -1.96725e-16)
(21.8213 25.0207 3.09963e-16)
(23.8318 25.3219 0)
(25.8825 25.3731 1.20125e-15)
(27.927 25.1673 5.57807e-16)
(29.9239 24.7055 0)
(31.8396 23.9979 1.18843e-15)
(33.6406 23.0615 -6.25503e-16)
(35.2987 21.9155 1.73923e-15)
(36.7921 20.5826 0)
(38.0997 19.0864 -2.88585e-15)
(39.2097 17.444 2.74057e-15)
(40.1121 15.6769 -1.68112e-16)
(40.792 13.8175 0)
(41.2336 11.91 2.96357e-15)
(41.4275 10.0003 -2.99088e-15)
(41.3727 8.14642 -1.52569e-16)
(41.0872 6.40153 -2.32336e-15)
(40.6064 4.81745 -2.13259e-15)
(39.9905 3.42996 0)
(39.3065 2.21183 0)
(38.5797 1.11121 -2.30395e-16)
(37.7987 0.114747 -2.5796e-17)
(36.9544 -0.779293 1.59067e-15)
(36.0401 -1.57554 -4.22219e-17)
(35.0429 -2.27441 4.21559e-17)
(33.9459 -2.87349 4.44876e-15)
(32.7308 -3.36956 0)
(31.3823 -3.75829 1.23957e-14)
(29.8678 -4.03396 -4.26861e-17)
(28.1746 -4.1844 0)
(26.1004 -4.18049 -3.21924e-17)
(23.8061 -3.8944 0)
(19.4018 -3.26582 -3.91501e-15)
(11.5349 18.2724 2.38316e-17)
(10.6899 16.9804 -1.55684e-16)
(9.92271 15.454 1.72127e-16)
(9.24629 13.7285 2.76923e-16)
(8.77355 11.8708 -1.09229e-15)
(8.53374 9.9037 -1.41628e-15)
(8.55809 7.90215 1.74181e-15)
(8.84555 5.97516 -1.93023e-15)
(9.38161 4.18754 -8.70589e-16)
(10.1414 2.58556 -7.74788e-16)
(11.0631 1.21233 1.49429e-15)
(12.0853 0.0838256 -1.43673e-15)
(13.159 -0.814973 -6.30195e-16)
(14.2442 -1.50956 6.13075e-16)
(15.3116 -2.02557 -1.33373e-15)
(16.3438 -2.3929 2.44072e-16)
(17.3316 -2.63819 0)
(18.2724 -2.78416 -9.29894e-16)
(19.1696 -2.84822 3.29079e-16)
(20.0294 -2.84087 -1.27809e-15)
(20.8577 -2.76635 0)
(21.658 -2.62207 7.96232e-16)
(22.4283 -2.40051 6.26606e-16)
(23.1538 -2.09077 -4.76919e-16)
(23.8036 -1.69878 0)
(24.3552 -1.25651 -3.18932e-16)
(24.8098 -0.787683 0)
(25.1752 -0.304318 0)
(25.455 0.183891 0)
(25.6512 0.66663 4.08364e-17)
(25.7677 1.13481 0)
(25.8094 1.58164 0)
(25.7797 2.00194 -1.66517e-16)
(25.6811 2.39139 -1.78399e-16)
(25.5055 2.74826 0)
(25.2538 3.0702 -8.52663e-16)
(24.8284 3.35713 6.27199e-17)
(24.3176 3.52616 0)
(22.8127 3.53937 -5.23017e-15)
(13.9558 18.1922 1.70546e-17)
(14.9531 19.2119 -1.21399e-17)
(16.1469 20.2282 0)
(17.5044 21.182 8.05966e-18)
(18.9843 22 -1.35699e-16)
(20.6172 22.6821 1.85507e-16)
(22.3618 23.1903 4.55036e-17)
(24.1789 23.4928 -7.7248e-16)
(26.0474 23.5765 -9.34305e-17)
(27.9288 23.4307 1.14575e-15)
(29.7872 23.0515 -4.08387e-16)
(31.5928 22.4425 9.18461e-16)
(33.3122 21.6138 4.59291e-16)
(34.9161 20.5793 3.32849e-16)
(36.379 19.3577 0)
(37.6773 17.9706 -6.26179e-16)
(38.7897 16.4439 -1.38071e-15)
(39.6919 14.8152 -5.10522e-15)
(40.3668 13.1181 1.50513e-15)
(40.8052 11.3837 -1.91037e-15)
(41.0028 9.64674 -2.99244e-16)
(40.9635 7.9486 0)
(40.7036 6.3325 2.08036e-15)
(40.2546 4.84114 1.32516e-16)
(39.6673 3.50717 -5.91561e-17)
(38.9994 2.31764 -8.24153e-16)
(38.2797 1.23483 1.90031e-16)
(37.5077 0.248125 3.97601e-16)
(36.6843 -0.641364 -1.48786e-15)
(35.8142 -1.43658 -7.94713e-17)
(34.8968 -2.13911 2.53336e-15)
(33.924 -2.74824 4.11487e-15)
(32.8783 -3.26225 0)
(31.7362 -3.67724 -1.86531e-17)
(30.448 -3.98608 -4.64163e-15)
(28.9812 -4.17108 0)
(27.1255 -4.20071 -7.41844e-15)
(25.0207 -3.91575 0)
(20.9119 -3.31808 3.55034e-15)
(13.1003 17.1329 -2.40527e-17)
(12.3236 15.9999 6.3599e-17)
(11.6045 14.6583 0)
(10.9565 13.1382 0)
(10.4796 11.5026 4.69634e-16)
(10.1935 9.76469 2.3491e-15)
(10.1279 7.98196 0)
(10.2873 6.24777 -1.4124e-15)
(10.6639 4.62345 -1.35689e-15)
(11.2383 3.14623 1.36518e-15)
(11.9653 1.85054 -5.51228e-17)
(12.7989 0.755165 5.96076e-16)
(13.702 -0.146922 2.93172e-17)
(14.6413 -0.871251 1.57765e-15)
(15.5892 -1.43336 1.41662e-15)
(16.5277 -1.85463 -1.33018e-15)
(17.4446 -2.15522 1.87484e-16)
(18.3329 -2.35364 -3.48647e-16)
(19.1912 -2.46493 1.61398e-16)
(20.0214 -2.49931 9.39021e-16)
(20.8258 -2.4617 1.21575e-16)
(21.6055 -2.35149 -8.83644e-17)
(22.3571 -2.16331 -5.34172e-16)
(23.0669 -1.88988 0)
(23.7082 -1.53609 2.2359e-17)
(24.2593 -1.12787 5.93389e-16)
(24.718 -0.687929 -3.17041e-18)
(25.0899 -0.228727 3.14428e-18)
(25.3775 0.239548 0)
(25.5826 0.70596 -3.83523e-17)
(25.7085 1.16081 0)
(25.7597 1.59625 0)
(25.7394 2.00636 1.53267e-16)
(25.65 2.38664 2.22184e-16)
(25.4837 2.73513 0)
(25.2417 3.04787 7.93688e-16)
(24.8327 3.32433 -4.71443e-15)
(24.3415 3.46983 2.18089e-17)
(22.9911 3.46013 4.78395e-15)
(15.1632 17.1038 -3.07487e-19)
(16.0611 18.0187 -1.19034e-17)
(17.1355 18.9381 -3.25591e-18)
(18.352 19.8066 3.17387e-18)
(19.6698 20.5586 9.13598e-17)
(21.1253 21.2 0)
(22.6807 21.697 -3.49986e-16)
(24.3033 22.0205 9.38272e-18)
(25.9804 22.1586 -3.45353e-16)
(27.6792 22.0994 -6.97111e-16)
(29.3712 21.8354 0)
(31.0321 21.3651 -1.6712e-15)
(32.6314 20.6926 -1.43044e-15)
(34.1419 19.8253 -3.47148e-15)
(35.5384 18.7756 0)
(36.7958 17.56 -2.1306e-15)
(37.8911 16.1988 -2.23039e-15)
(38.8056 14.7114 2.40931e-15)
(39.5228 13.1224 -2.36834e-15)
(40.027 11.4657 2.19241e-15)
(40.3077 9.781 2.69009e-16)
(40.3615 8.11615 -2.31584e-15)
(40.1979 6.51933 0)
(39.8411 5.0354 -1.9842e-15)
(39.333 3.69672 1.1635e-16)
(38.7237 2.49678 8.63174e-16)
(38.0428 1.40507 0)
(37.2957 0.41052 -2.95561e-17)
(36.4864 -0.486073 6.33423e-17)
(35.6243 -1.28725 2.4346e-15)
(34.7162 -1.99495 -2.25673e-15)
(33.7649 -2.60937 -3.91985e-15)
(32.7671 -3.13018 3.32338e-15)
(31.7134 -3.55579 -6.13844e-17)
(30.5658 -3.88127 4.45048e-15)
(29.2967 -4.08912 6.22099e-15)
(27.6949 -4.14846 3.6044e-15)
(25.8916 -3.87649 -1.14437e-17)
(22.2053 -3.32782 -3.57081e-18)
(14.3873 16.1555 9.77093e-18)
(13.6799 15.1475 1.25202e-16)
(13.0126 13.9517 1.72568e-16)
(12.3984 12.5956 -3.22735e-16)
(11.9276 11.1389 -1.29068e-15)
(11.6152 9.58737 4.25091e-16)
(11.4881 7.98549 1.11016e-15)
(11.5564 6.41607 2.90103e-15)
(11.8155 4.9375 1.17297e-15)
(12.2489 3.57783 -1.10037e-15)
(12.8231 2.36529 -3.81422e-17)
(13.5028 1.31841 -5.34272e-16)
(14.26 0.433456 0)
(15.0679 -0.299085 -2.59777e-17)
(15.9027 -0.888092 -8.7302e-16)
(16.7476 -1.34839 3.81839e-16)
(17.5898 -1.6943 -3.74375e-16)
(18.4197 -1.93949 0)
(19.2328 -2.09572 5.68961e-16)
(20.0275 -2.17178 -9.94034e-16)
(20.8033 -2.17212 0)
(21.5589 -2.09701 7.30263e-16)
(22.2894 -1.94293 0)
(22.9821 -1.7053 -2.78881e-17)
(23.6133 -1.38855 2.75977e-17)
(24.1622 -1.01394 -2.90003e-16)
(24.6238 -0.6027 -5.23985e-18)
(25.0013 -0.167868 -3.20254e-18)
(25.2963 0.279903 8.55412e-19)
(25.5101 0.729433 -4.89656e-17)
(25.6453 1.17058 -7.11423e-17)
(25.7058 1.59523 1.10452e-16)
(25.6944 1.99703 3.11358e-18)
(25.6134 2.37071 2.58875e-17)
(25.455 2.71338 0)
(25.2201 3.01897 1.51032e-17)
(24.8229 3.28583 2.17969e-15)
(24.3426 3.40944 -1.04565e-17)
(23.1092 3.37332 4.3763e-15)
(16.22 16.1463 3.66451e-18)
(17.043 16.9716 1.77711e-17)
(18.0262 17.8047 0)
(19.1353 18.5935 -2.54141e-17)
(20.3297 19.2791 3.88384e-17)
(21.6483 19.8708 0)
(23.0572 20.3377 -1.30194e-16)
(24.5274 20.654 1.00612e-15)
(26.0522 20.809 -1.38325e-15)
(27.6043 20.7903 4.41366e-16)
(29.1599 20.5889 5.93914e-16)
(30.6997 20.2005 2.13005e-15)
(32.1971 19.6248 1.51962e-15)
(33.627 18.8647 1.80513e-15)
(34.9646 17.9279 4.75239e-16)
(36.1847 16.8265 1.56692e-15)
(37.2635 15.5766 2.14276e-15)
(38.1785 14.2001 2.06544e-15)
(38.9078 12.7269 -1.51693e-15)
(39.4349 11.188 -4.63676e-15)
(39.7497 9.61769 0)
(39.8496 8.0553 8.4985e-17)
(39.7426 6.54281 1.8029e-15)
(39.4499 5.12009 1.88867e-15)
(39.006 3.81734 -1.07235e-16)
(38.4525 2.63535 -7.79226e-16)
(37.8172 1.55327 5.58385e-18)
(37.1075 0.562655 -3.95594e-16)
(36.3276 -0.334342 4.16253e-17)
(35.4857 -1.13826 -4.56842e-15)
(34.5891 -1.84989 -7.73323e-18)
(33.6431 -2.46857 -6.16463e-17)
(32.6495 -2.99346 -3.19649e-15)
(31.6092 -3.42294 -6.10817e-17)
(30.5008 -3.75324 -4.15674e-15)
(29.3205 -3.9682 -1.18951e-14)
(27.8889 -4.04244 3.41429e-15)
(26.3807 -3.78031 6.58081e-16)
(23.2153 -3.28806 2.85041e-15)
(15.504 15.2926 -4.51855e-17)
(14.8494 14.3887 -1.70843e-16)
(14.223 13.3146 -1.25322e-16)
(13.6374 12.0944 -3.20169e-16)
(13.175 10.7857 7.21733e-16)
(12.8472 9.38872 -5.23009e-17)
(12.6781 7.93871 -2.85056e-15)
(12.6804 6.51123 -1.00052e-15)
(12.8515 5.16144 1.3711e-17)
(13.1771 3.9097 0)
(13.631 2.77983 -9.42838e-16)
(14.1854 1.78892 8.82184e-16)
(14.8191 0.934241 -8.52031e-16)
(15.5111 0.209549 -4.37234e-16)
(16.2418 -0.389737 3.66602e-16)
(16.9968 -0.873733 3.64195e-16)
(17.7637 -1.25177 1.31144e-15)
(18.5324 -1.5332 -3.10707e-16)
(19.2964 -1.72663 -5.31519e-16)
(20.0517 -1.83902 0)
(20.7953 -1.87401 -8.11254e-16)
(21.5238 -1.83226 -6.06151e-16)
(22.2312 -1.71131 -1.19549e-17)
(22.9053 -1.50854 -6.56446e-17)
(23.5244 -1.22807 -2.17645e-17)
(24.0688 -0.887114 3.33461e-16)
(24.5313 -0.505253 -6.5525e-18)
(24.9127 -0.0958016 5.29222e-17)
(25.214 0.330331 9.58361e-18)
(25.4356 0.761849 4.48795e-17)
(25.5794 1.18828 -1.02007e-17)
(25.6488 1.60099 -2.38824e-16)
(25.6462 1.99304 -2.22765e-16)
(25.5734 2.35847 -2.20779e-16)
(25.4229 2.69363 -9.44308e-18)
(25.1952 2.99061 5.25215e-18)
(24.8098 3.24636 -2.18652e-15)
(24.3413 3.34919 -3.03343e-15)
(23.2056 3.28722 -4.0232e-15)
(17.1338 15.2994 -1.11917e-17)
(17.8924 16.0484 -6.22778e-18)
(18.7976 16.8073 -7.5496e-18)
(19.8147 17.5275 -4.47476e-17)
(20.9038 18.1548 7.18894e-17)
(22.1047 18.7017 -1.58334e-16)
(23.386 19.1403 4.95528e-16)
(24.722 19.4472 0)
(26.1098 19.6143 4.22205e-16)
(27.5262 19.6294 1.06726e-17)
(28.9518 19.4832 -5.10199e-16)
(30.372 19.1699 -1.96423e-15)
(31.7635 18.6867 -7.9395e-16)
(33.1041 18.0332 0)
(34.3714 17.2132 0)
(35.5407 16.2347 0)
(36.5881 15.1105 0)
(37.491 13.8582 -2.00148e-15)
(38.2289 12.4983 1.98491e-15)
(38.7837 11.0584 1.9414e-15)
(39.1422 9.57172 -1.5614e-15)
(39.2983 8.07793 1.36837e-15)
(39.2562 6.61896 -1.40983e-15)
(39.0322 5.23464 -1.03141e-16)
(38.6551 3.95454 -4.6926e-17)
(38.1603 2.78342 7.88961e-16)
(37.5743 1.70698 1.69758e-16)
(36.9074 0.71857 0)
(36.1647 -0.179368 0)
(35.3541 -0.986128 3.83209e-17)
(34.4821 -1.70185 0)
(33.5531 -2.32518 3.40421e-15)
(32.569 -2.85453 -3.02554e-15)
(31.532 -3.28737 -4.88363e-15)
(30.4265 -3.6196 7.76104e-15)
(29.2629 -3.83377 5.66814e-15)
(27.8946 -3.90972 -3.26204e-15)
(26.5644 -3.64365 -1.27933e-15)
(23.9146 -3.19694 -2.73339e-15)
(16.4699 14.5254 0)
(15.8612 13.7089 4.77514e-17)
(15.2714 12.7366 2.38945e-16)
(14.7128 11.6306 -1.03483e-15)
(14.2616 10.4462 9.12098e-16)
(13.9255 9.17938 -7.4702e-16)
(13.728 7.8585 6.76115e-18)
(13.6821 6.5542 7.58948e-16)
(13.7866 5.31805 8.08121e-16)
(14.029 4.16468 0)
(14.3878 3.11419 3.91306e-16)
(14.8405 2.18216 -1.19666e-15)
(15.3705 1.36573 1.90147e-15)
(15.9617 0.660185 3.47238e-16)
(16.5982 0.0630718 -7.07453e-16)
(17.2686 -0.432281 -6.5986e-16)
(17.9618 -0.831626 -6.07492e-16)
(18.6682 -1.14075 0)
(19.3804 -1.36523 0)
(20.093 -1.50983 0)
(20.801 -1.5771 7.62541e-16)
(21.4996 -1.56742 0)
(22.1819 -1.47896 -4.93651e-16)
(22.8356 -1.3103 -6.32441e-17)
(23.441 -1.06513 -3.83109e-16)
(23.9788 -0.757563 -2.95788e-16)
(24.4403 -0.4053 0)
(24.8244 -0.021667 -4.41667e-17)
(25.1309 0.382288 -1.01773e-17)
(25.3595 0.795182 1.90244e-18)
(25.5115 1.20626 1.58822e-16)
(25.5896 1.60646 -1.74959e-17)
(25.5956 1.98836 2.1637e-16)
(25.5312 2.34528 -2.5708e-16)
(25.3887 2.67274 0)
(25.1686 2.96099 -1.44653e-17)
(24.7956 3.20539 -3.34546e-17)
(24.3407 3.28931 2.8842e-15)
(23.295 3.20342 -2.41832e-17)
(17.9372 14.5405 1.37026e-17)
(18.6418 15.2231 0)
(19.4815 15.9165 3.65679e-17)
(20.4216 16.5753 -1.94589e-18)
(21.4228 17.1491 -4.09174e-17)
(22.5252 17.6526 1.48671e-16)
(23.6992 18.0602 -2.19112e-16)
(24.9214 18.3516 -2.60015e-16)
(26.1918 18.5198 0)
(27.4902 18.5537 -4.41674e-16)
(28.8012 18.4444 -4.70733e-16)
(30.1134 18.1854 4.67231e-16)
(31.407 17.7722 1.73544e-15)
(32.6633 17.202 6.92006e-16)
(33.8618 16.4754 -2.09226e-15)
(34.9791 15.5974 -1.50291e-15)
(35.9924 14.5772 1.18084e-15)
(36.8789 13.4285 8.69495e-16)
(37.6171 12.1714 -4.34533e-16)
(38.1872 10.8319 4.32717e-16)
(38.5746 9.44014 1.09792e-15)
(38.7722 8.03119 2.043e-16)
(38.7816 6.64309 -1.91813e-16)
(38.6158 5.31273 -1.27584e-15)
(38.298 4.06826 0)
(37.8576 2.91765 -6.68655e-16)
(37.3189 1.85322 -3.19201e-16)
(36.6939 0.87133 -2.94446e-16)
(35.989 -0.024561 -1.08918e-15)
(35.2121 -0.832266 4.07804e-15)
(34.3697 -1.55087 1.67949e-15)
(33.4659 -2.17837 3.89124e-18)
(32.5016 -2.71226 3.89689e-17)
(31.4781 -3.14898 0)
(30.3796 -3.48346 -3.66743e-15)
(29.2183 -3.69584 0)
(27.8643 -3.76919 0)
(26.5868 -3.48967 6.17675e-16)
(24.3464 -3.0651 4.37887e-18)
(17.3173 13.8353 -4.64165e-17)
(16.7477 13.0934 1.60565e-16)
(16.1898 12.2085 1.06368e-17)
(15.6562 11.2002 2.30195e-16)
(15.2174 10.1218 -8.37399e-16)
(14.878 8.96604 6.29543e-16)
(14.661 7.75635 3.62638e-17)
(14.58 6.55999 -6.33564e-16)
(14.6337 5.42415 -6.24422e-16)
(14.8113 4.35964 -6.67617e-16)
(15.0945 3.38386 -1.33128e-15)
(15.4644 2.51075 0)
(15.9079 1.73673 -6.87231e-16)
(16.4121 1.05757 -2.45597e-17)
(16.9648 0.472068 0)
(17.557 -0.024611 -5.82611e-16)
(18.1797 -0.43555 -2.77918e-16)
(18.8241 -0.763933 -2.62349e-16)
(19.4833 -1.0128 9.08924e-16)
(20.1509 -1.18473 8.13869e-16)
(20.8209 -1.28082 -8.49178e-17)
(21.4873 -1.301 6.33724e-16)
(22.1425 -1.24361 1.27062e-16)
(22.7742 -1.10774 -6.07982e-17)
(23.364 -0.896711 3.41953e-16)
(23.8933 -0.622107 2.09129e-17)
(24.352 -0.299598 0)
(24.7373 0.0577711 0)
(25.0478 0.438877 -1.99027e-18)
(25.2826 0.832365 5.05869e-18)
(25.4422 1.22728 -1.74086e-16)
(25.5286 1.61415 -1.70399e-17)
(25.5431 1.98512 2.73475e-16)
(25.487 2.33278 2.46225e-16)
(25.3528 2.65183 1.0977e-17)
(25.1408 2.93081 3.62167e-18)
(24.7808 3.16345 4.05992e-15)
(24.3412 3.22992 -2.75423e-15)
(23.3813 3.12268 2.25688e-17)
(18.6467 13.855 5.23058e-18)
(19.3045 14.4796 0)
(20.0874 15.1152 -2.47956e-17)
(20.961 15.7191 0)
(21.8865 16.245 -8.91248e-17)
(22.9038 16.7083 8.63729e-17)
(23.9848 17.0861 1.6715e-16)
(25.1079 17.3601 2.45349e-16)
(26.2748 17.525 0)
(27.4678 17.5709 -2.95578e-16)
(28.6747 17.4894 4.82746e-16)
(29.887 17.2743 -9.87922e-16)
(31.0879 16.9199 -5.51475e-16)
(32.2614 16.4222 -5.58781e-16)
(33.3895 15.7798 1.33375e-15)
(34.4511 14.9947 1.43764e-15)
(35.4243 14.0732 -1.53503e-15)
(36.2871 13.0263 -1.52158e-15)
(37.0183 11.8699 0)
(37.5981 10.6258 3.97529e-16)
(38.0103 9.32116 -7.69662e-16)
(38.2459 7.98894 1.89653e-16)
(38.3036 6.66519 4.24976e-18)
(38.1928 5.38518 3.01835e-15)
(37.9316 4.17588 -1.6502e-16)
(37.5442 3.04724 1.00024e-16)
(37.0525 1.99654 2.96417e-16)
(36.4693 1.02291 3.13824e-16)
(35.8021 0.130678 9.4146e-16)
(35.059 -0.67661 -1.88572e-15)
(34.2469 -1.39701 -1.54674e-15)
(33.3703 -2.02783 -6.06923e-15)
(32.4302 -2.56583 5.2305e-15)
(31.4273 -3.00642 -7.41219e-17)
(30.3455 -3.34364 3.43015e-15)
(29.1947 -3.555 -1.07435e-16)
(27.8549 -3.62602 5.99048e-17)
(26.5692 -3.33313 3.86276e-18)
(24.601 -2.90749 -2.10738e-15)
(18.0653 13.2099 2.25185e-17)
(17.5301 12.5324 -8.34719e-17)
(17.001 11.7231 1.65777e-16)
(16.4903 10.7993 0)
(16.0645 9.81261 4.89977e-16)
(15.7256 8.75275 0)
(15.4957 7.64019 0)
(15.3889 6.53879 0)
(15.4037 5.49192 1.16306e-15)
(15.5305 4.50764 -5.77101e-16)
(15.7533 3.60131 6.51838e-16)
(16.0557 2.78547 0)
(16.427 2.05564 0)
(16.8568 1.40741 -5.94318e-16)
(17.3356 0.840123 0)
(17.8566 0.350033 5.42828e-16)
(18.413 -0.0646291 1.27263e-17)
(18.9974 -0.404943 0)
(19.6033 -0.671857 -6.49764e-16)
(20.2246 -0.866182 -9.64854e-16)
(20.8547 -0.98767 -6.73286e-16)
(21.4869 -1.03539 -5.88251e-16)
(22.1131 -1.00741 1.01097e-15)
(22.7214 -0.902945 0)
(23.294 -0.724855 3.42331e-16)
(23.8127 -0.482485 3.1986e-16)
(24.2668 -0.189615 1.2141e-16)
(24.6519 0.141235 0)
(24.9653 0.499009 -9.5375e-18)
(25.2054 0.87244 -5.99031e-17)
(25.372 1.2505 1.8215e-16)
(25.4663 1.62337 -1.65553e-17)
(25.4891 1.98276 -2.50621e-16)
(25.4414 2.32058 2.70085e-16)
(25.3157 2.6307 -2.04304e-18)
(25.1121 2.90007 1.07049e-17)
(24.7661 3.12062 -3.95375e-15)
(24.3428 3.17137 2.57984e-15)
(23.4651 3.04564 6.27856e-15)
(19.2778 13.2312 2.12532e-18)
(19.8947 13.8045 -1.51993e-17)
(20.6279 14.3886 0)
(21.4436 14.9431 1.15208e-18)
(22.3035 15.4253 0)
(23.2471 15.8512 0)
(24.2472 16.2 1.84425e-17)
(25.2837 16.4554 2.11736e-16)
(26.3598 16.6132 4.87135e-16)
(27.4597 16.6647 1.23337e-15)
(28.5733 16.6027 6.93462e-16)
(29.6945 16.421 7.96574e-16)
(30.8093 16.1138 0)
(31.9044 15.6759 1.53818e-15)
(32.9642 15.1046 -5.44048e-16)
(33.9695 14.3999 0)
(34.9003 13.5656 1.28189e-15)
(35.7355 12.6097 1.45803e-15)
(36.4546 11.5453 0)
(37.0374 10.3915 1.41387e-15)
(37.4669 9.17305 -1.38116e-15)
(37.7327 7.91946 0)
(37.8314 6.66357 -1.63451e-16)
(37.7691 5.43828 3.16538e-17)
(37.56 4.26913 7.78552e-17)
(37.223 3.16734 1.16612e-15)
(36.7772 2.1342 -3.98809e-18)
(36.2356 1.17173 -3.10535e-17)
(35.6063 0.285517 -2.614e-17)
(34.8972 -0.519647 5.72023e-17)
(34.1155 -1.24054 1.55882e-15)
(33.2664 -1.87367 5.49382e-15)
(32.3511 -2.41504 4.31347e-17)
(31.371 -2.85909 -3.99386e-15)
(30.3106 -3.19903 -3.11823e-15)
(29.1781 -3.41007 -4.62213e-15)
(27.8647 -3.47931 -2.70383e-15)
(26.5679 -3.1793 2.17344e-17)
(24.7675 -2.73908 1.9653e-15)
(18.7304 12.6389 -5.28711e-17)
(18.2256 12.018 -2.00872e-16)
(17.7225 11.2747 4.0114e-16)
(17.2333 10.4251 0)
(16.8206 9.51833 8.01878e-16)
(16.4848 8.54237 0)
(16.2468 7.51535 -4.54578e-16)
(16.121 6.4981 1.82867e-15)
(16.106 5.53044 -1.41863e-15)
(16.1927 4.6188 0)
(16.367 3.77661 1.05851e-15)
(16.6143 3.01522 1.02642e-15)
(16.9253 2.3295 0)
(17.2917 1.7148 -1.01741e-15)
(17.7057 1.17035 2.47171e-16)
(18.1628 0.692641 -2.47288e-16)
(18.6577 0.280787 2.41531e-16)
(19.1847 -0.0650282 4.25717e-16)
(19.7384 -0.344255 -1.50863e-17)
(20.3129 -0.556155 5.18685e-16)
(20.9019 -0.699198 1.54883e-16)
(21.4984 -0.771572 -1.4759e-16)
(22.0943 -0.770943 -4.79861e-16)
(22.6777 -0.696222 4.14142e-16)
(23.2313 -0.549586 -3.03984e-16)
(23.7378 -0.338588 -3.24255e-16)
(24.1855 -0.0751073 -1.15491e-16)
(24.5687 0.229065 -1.33631e-18)
(24.8838 0.563069 1.04437e-17)
(25.1284 0.915853 5.72881e-17)
(25.3012 1.27637 8.81585e-18)
(25.403 1.63453 -1.60331e-17)
(25.434 1.98166 3.05358e-16)
(25.3946 2.309 -2.77029e-16)
(25.2776 2.6096 1.11914e-17)
(25.0828 2.86894 -7.96548e-16)
(24.7516 3.07725 1.92011e-15)
(24.3455 3.1138 0)
(23.5465 2.97204 -6.01966e-15)
(19.8421 12.6601 8.67707e-18)
(20.4226 13.1877 0)
(21.1118 13.7256 0)
(21.8764 14.2356 -2.25447e-17)
(22.6787 14.6782 -1.95217e-17)
(23.5573 15.0695 0)
(24.4863 15.3907 0)
(25.4465 15.6272 -7.00325e-16)
(26.442 15.7759 -3.4985e-17)
(27.4588 15.8293 -4.21581e-17)
(28.4882 15.781 -1.60476e-15)
(29.5264 15.6252 -4.17209e-16)
(30.5613 15.3565 7.93058e-16)
(31.5821 14.9692 -6.77568e-17)
(32.5755 14.4596 0)
(33.5245 13.8262 0)
(34.411 13.0707 -3.51833e-15)
(35.2151 12.1988 -6.44383e-16)
(35.917 11.221 6.58407e-16)
(36.4975 10.153 -1.37184e-15)
(36.9388 9.01656 2.60364e-15)
(37.2291 7.83845 1.23229e-15)
(37.3633 6.64882 -1.19182e-15)
(37.3447 5.47841 -1.34396e-15)
(37.1834 4.35133 2.12854e-16)
(36.8944 3.27926 -1.14913e-15)
(36.4937 2.26645 -1.29613e-16)
(35.9935 1.3176 2.88896e-17)
(35.4022 0.439465 -2.88552e-17)
(34.7276 -0.361827 9.69568e-17)
(33.977 -1.08186 -4.01085e-17)
(33.1557 -1.71626 -2.71441e-15)
(32.2657 -2.26016 -1.02926e-16)
(31.3086 -2.70708 1.22261e-16)
(30.2709 -3.04936 0)
(29.1597 -3.26045 4.29895e-15)
(27.8801 -3.32769 2.5327e-15)
(26.5905 -3.02708 0)
(24.9036 -2.56882 0)
(19.325 12.1148 0)
(18.8473 11.5437 1.80245e-16)
(18.3683 10.8589 -6.024e-16)
(17.8991 10.0747 -2.94162e-16)
(17.4995 9.23852 -7.3146e-16)
(17.1687 8.33656 0)
(16.9261 7.38555 0)
(16.7866 6.44335 -8.1835e-16)
(16.7485 5.5467 8.58393e-16)
(16.8034 4.70071 0)
(16.9386 3.91743 -4.4907e-16)
(17.1407 3.20733 -4.85349e-16)
(17.4015 2.56481 4.60318e-16)
(17.7139 1.98463 4.78462e-16)
(18.0717 1.4657 -8.89359e-16)
(18.4717 1.00463 0)
(18.9103 0.600736 -2.02292e-16)
(19.3833 0.254908 1.19877e-17)
(19.8864 -0.0313987 9.00461e-16)
(20.4146 -0.25628 -1.6809e-16)
(20.962 -0.417059 1.61239e-16)
(21.5218 -0.511092 -1.23892e-16)
(22.0861 -0.535488 1.75592e-16)
(22.6432 -0.488676 -8.41167e-16)
(23.1765 -0.371957 -3.00359e-16)
(23.6689 -0.191228 2.63336e-16)
(24.1084 0.0433391 -1.62086e-17)
(24.4883 0.320866 0)
(24.8038 0.630849 -9.85154e-18)
(25.0518 0.962499 6.02503e-17)
(25.2303 1.30486 -9.27006e-17)
(25.339 1.64764 1.63248e-16)
(25.3779 1.98183 -6.15799e-16)
(25.3468 2.29808 6.34091e-16)
(25.2388 2.58859 -9.61753e-18)
(25.0533 2.83757 7.54445e-16)
(24.7376 3.03344 3.49225e-17)
(24.3497 3.05746 -7.49111e-17)
(23.6254 2.90234 -5.40077e-15)
(20.3489 12.1345 -8.41796e-18)
(20.8969 12.6212 0)
(21.5467 13.1173 0)
(22.2658 13.5869 1.81225e-17)