/*--------------------------------*- C++ -*----------------------------------*\
  =========                 |
  \\      /  F ield         | OpenFOAM: The Open Source CFD Toolbox
   \\    /   O peration     | Website:  https://openfoam.org
    \\  /    A nd           | Version:  7
     \\/     M anipulation  |
\*---------------------------------------------------------------------------*/
FoamFile
{
    version     2.0;
    format      ascii;
    class       volScalarField;
    location    "150";
    object      nut;
}
// * * * * * * * * * * * * * * * * * * * * * * * * * * * * * * * * * * * * * //

dimensions      [0 2 -1 0 0 0 0];

internalField   nonuniform List<scalar> 
10720
(
0.0910336
0.0955377
0.100589
0.106057
0.112263
0.119211
0.127043
0.135625
0.144914
0.154586
0.16418
0.17327
0.181099
0.187165
0.191373
0.193888
0.194916
0.194736
0.19347
0.19131
0.188241
0.184343
0.179656
0.174403
0.168982
0.163673
0.158469
0.153238
0.147884
0.142403
0.136791
0.13102
0.125055
0.11885
0.112231
0.10509
0.0963617
0.0866345
0.064308
0.0867207
0.0820391
0.076913
0.0705359
0.0628486
0.0531687
0.0416306
0.0369191
0.0347006
0.0402806
0.0470143
0.0525718
0.0573061
0.0616929
0.0659784
0.0702319
0.0744246
0.0784976
0.0823969
0.08611
0.0896536
0.0930584
0.0963551
0.0995429
0.102433
0.104802
0.106627
0.107956
0.108849
0.109331
0.109471
0.10939
0.109083
0.108492
0.107531
0.106185
0.104002
0.101454
0.0917136
0.100253
0.0998385
0.0991354
0.0981636
0.0971208
0.0959339
0.094681
0.0934843
0.0923993
0.0923534
0.0933776
0.0952126
0.0978596
0.101461
0.106016
0.111383
0.117484
0.124068
0.130985
0.137879
0.144616
0.150769
0.156027
0.159789
0.161575
0.161483
0.159937
0.157265
0.153796
0.149789
0.145436
0.140874
0.136204
0.131522
0.126932
0.122566
0.118591
0.115506
0.109973
0.100677
0.100777
0.101029
0.100798
0.100333
0.0995505
0.0981869
0.0958299
0.0929178
0.0892495
0.0851847
0.0810564
0.0769979
0.073049
0.0693512
0.0659652
0.0629421
0.060303
0.0580632
0.0562085
0.0547275
0.0535989
0.0527986
0.0522899
0.0520466
0.0520286
0.0521695
0.0524022
0.0526718
0.0532073
0.0550044
0.0579918
0.0614505
0.0647767
0.0676683
0.0701921
0.0723021
0.0761972
0.0795493
0.121497
0.121329
0.120953
0.12037
0.119694
0.118818
0.117739
0.116516
0.115099
0.113519
0.111813
0.110094
0.10851
0.107219
0.106263
0.105457
0.104814
0.104377
0.104094
0.103468
0.103374
0.103992
0.105481
0.107092
0.112498
0.119274
0.125948
0.131818
0.136612
0.140232
0.142707
0.144161
0.144772
0.144728
0.144211
0.143306
0.142316
0.140418
0.139912
0.121655
0.1216
0.121586
0.12132
0.120858
0.120173
0.119193
0.117881
0.116233
0.114227
0.11186
0.109195
0.106279
0.103126
0.0998324
0.0964401
0.0930124
0.0895949
0.0862404
0.0829629
0.0797906
0.0767231
0.0737689
0.0708356
0.0678746
0.0649482
0.0620968
0.0593618
0.0567719
0.0543724
0.0521639
0.0508574
0.0510496
0.0523617
0.0543168
0.0567378
0.0594899
0.0625892
0.0676523
0.128619
0.128518
0.128316
0.128009
0.127636
0.127157
0.126563
0.125877
0.125065
0.124137
0.123089
0.121911
0.120599
0.119161
0.117643
0.116007
0.11413
0.112056
0.109784
0.107304
0.104661
0.102057
0.0996983
0.0976033
0.0963185
0.0961038
0.0968429
0.100394
0.10619
0.11295
0.11998
0.126838
0.13322
0.138966
0.144071
0.148569
0.152769
0.155754
0.158719
0.128694
0.128688
0.128672
0.128536
0.128301
0.127937
0.127408
0.126685
0.125768
0.124636
0.123282
0.12172
0.119954
0.117975
0.115816
0.113489
0.111022
0.108442
0.105785
0.103065
0.100312
0.0975353
0.0947288
0.09181
0.0887143
0.0854879
0.0821609
0.0787699
0.0753476
0.0719287
0.0685337
0.0652065
0.0620761
0.0593168
0.0568635
0.0560929
0.0567385
0.0578263
0.0610229
0.132213
0.132144
0.13201
0.131814
0.131578
0.131272
0.130897
0.13046
0.129944
0.129351
0.128678
0.127914
0.127053
0.126086
0.124999
0.123785
0.122413
0.120851
0.119051
0.116994
0.114637
0.111991
0.109088
0.106046
0.102997
0.100282
0.0979037
0.095885
0.0949094
0.095061
0.0982954
0.104022
0.111278
0.119601
0.128609
0.138035
0.147846
0.157928
0.167265
0.132262
0.132257
0.132247
0.132155
0.132007
0.131773
0.131431
0.130974
0.130403
0.129706
0.128876
0.127916
0.126824
0.125587
0.124219
0.122713
0.121079
0.119323
0.117459
0.115492
0.113435
0.111289
0.109047
0.10664
0.104011
0.101182
0.0981698
0.0949942
0.0916765
0.08824
0.0847089
0.0811049
0.0774525
0.073797
0.0701452
0.0666398
0.0635453
0.0606167
0.0598674
0.134276
0.134226
0.134139
0.134008
0.133847
0.133639
0.133384
0.133086
0.132736
0.132332
0.131874
0.131352
0.130763
0.130098
0.129347
0.1285
0.127539
0.126447
0.12519
0.123743
0.122062
0.120116
0.117867
0.115321
0.112557
0.109665
0.106692
0.103637
0.100632
0.0978097
0.0956994
0.0948897
0.0957901
0.100755
0.108518
0.118861
0.131635
0.147861
0.165698
0.134307
0.134303
0.134293
0.134227
0.134125
0.133962
0.133724
0.133411
0.133027
0.132562
0.132011
0.131377
0.130657
0.129842
0.128938
0.127939
0.126844
0.125654
0.124372
0.122997
0.121531
0.11997
0.118301
0.116472
0.114429
0.112177
0.109718
0.107055
0.104194
0.101145
0.0979204
0.0945354
0.0910044
0.0873435
0.083564
0.0796246
0.0755546
0.0709633
0.0647985
0.135596
0.135559
0.135495
0.1354
0.135282
0.135131
0.134946
0.134731
0.134479
0.134189
0.13386
0.133486
0.133063
0.132586
0.132044
0.131433
0.130736
0.129943
0.129032
0.127986
0.126773
0.12537
0.123745
0.121884
0.119808
0.11752
0.114995
0.112241
0.109273
0.106122
0.102854
0.0996912
0.096885
0.0953901
0.0963321
0.102077
0.112396
0.129923
0.155106
0.135616
0.135609
0.135597
0.135546
0.135472
0.135352
0.135176
0.134949
0.134675
0.134345
0.133957
0.133513
0.133012
0.132446
0.13182
0.131127
0.130367
0.129537
0.128637
0.127664
0.126617
0.125488
0.124266
0.122909
0.121375
0.119657
0.117746
0.115635
0.113318
0.11079
0.108053
0.10511
0.101963
0.0986159
0.09507
0.0912816
0.0871589
0.082585
0.0739276
0.1365
0.136473
0.136426
0.136355
0.136267
0.136154
0.136017
0.135856
0.135668
0.135452
0.135207
0.134928
0.134614
0.134257
0.133854
0.133396
0.132875
0.132282
0.1316
0.130817
0.12991
0.128864
0.127658
0.126279
0.124735
0.123019
0.121093
0.118932
0.116511
0.113805
0.110802
0.107539
0.104067
0.100559
0.0974989
0.096116
0.0996055
0.111555
0.138703
0.136511
0.136503
0.136491
0.136449
0.136393
0.136302
0.136166
0.135994
0.13579
0.135544
0.135258
0.134934
0.134569
0.134159
0.133708
0.133208
0.132661
0.132062
0.131411
0.130705
0.12994
0.129111
0.128205
0.127194
0.126042
0.124742
0.123282
0.12165
0.119832
0.117816
0.115592
0.113151
0.110486
0.10759
0.10445
0.101028
0.0971656
0.0929957
0.0840443
0.13715
0.137131
0.137095
0.137041
0.136973
0.136885
0.136778
0.136654
0.136508
0.136341
0.136152
0.135938
0.135696
0.135422
0.135112
0.134761
0.134362
0.133907
0.133385
0.132786
0.132093
0.131293
0.130371
0.129318
0.128137
0.126822
0.125346
0.123682
0.1218
0.119665
0.117236
0.114477
0.11135
0.107858
0.104049
0.100086
0.0972383
0.0999322
0.121765
0.137157
0.13715
0.137139
0.137105
0.13706
0.136988
0.13688
0.136745
0.136586
0.136397
0.136179
0.135932
0.135658
0.135351
0.135014
0.134643
0.134236
0.133791
0.133307
0.13278
0.132208
0.131585
0.130902
0.130135
0.12926
0.128268
0.127149
0.125889
0.124474
0.12289
0.121121
0.119152
0.116969
0.114553
0.111881
0.108914
0.105465
0.101775
0.0934425
0.137639
0.137625
0.137597
0.137554
0.1375
0.137431
0.137346
0.137247
0.137132
0.137001
0.136852
0.136684
0.136494
0.136281
0.136038
0.135764
0.135452
0.135095
0.134686
0.134216
0.133674
0.133048
0.132329
0.131507
0.130586
0.129557
0.128398
0.127091
0.125612
0.12393
0.122009
0.119805
0.117259
0.114303
0.110853
0.106774
0.102218
0.0973295
0.10926
0.137645
0.137639
0.137629
0.1376
0.137564
0.137505
0.137416
0.137307
0.13718
0.13703
0.136858
0.136666
0.136453
0.136217
0.135959
0.135676
0.135366
0.135027
0.134658
0.134256
0.133818
0.13334
0.132814
0.132222
0.131546
0.130779
0.12991
0.128929
0.127823
0.126578
0.125177
0.123605
0.121844
0.119871
0.117656
0.115161
0.112189
0.109009
0.101616
0.138021
0.138009
0.137986
0.137951
0.137907
0.13785
0.137781
0.137701
0.137607
0.137501
0.137382
0.137247
0.137095
0.136923
0.13673
0.13651
0.136261
0.135976
0.13565
0.135276
0.134845
0.13435
0.13378
0.13313
0.132401
0.131585
0.130664
0.129621
0.128436
0.127089
0.12555
0.123782
0.121738
0.119344
0.116508
0.112986
0.108763
0.101908
0.10386
0.138027
0.138022
0.138012
0.137987
0.137956
0.137907
0.137832
0.137743
0.137638
0.137516
0.137377
0.137223
0.137055
0.136869
0.136667
0.136445
0.136204
0.135941
0.135654
0.135341
0.135
0.134626
0.134214
0.133749
0.133218
0.132615
0.131931
0.131159
0.130285
0.129299
0.128186
0.126929
0.125513
0.123914
0.122101
0.120039
0.117537
0.114859
0.108501
0.138328
0.138317
0.138298
0.138268
0.13823
0.138182
0.138125
0.138058
0.137981
0.137893
0.137795
0.137685
0.137561
0.137422
0.137265
0.137087
0.136885
0.136655
0.136391
0.13609
0.135742
0.135342
0.134883
0.134361
0.133776
0.133121
0.132381
0.131541
0.130584
0.129492
0.128241
0.126803
0.12514
0.123194
0.120894
0.118001
0.114546
0.108232
0.103732
0.138333
0.138329
0.138319
0.138295
0.138269
0.138227
0.138164
0.138088
0.138001
0.137899
0.137785
0.13766
0.137523
0.137374
0.137212
0.137036
0.136845
0.136636
0.13641
0.136162
0.135892
0.135595
0.135267
0.134896
0.134473
0.133992
0.133447
0.13283
0.132133
0.131344
0.130451
0.129441
0.128298
0.127002
0.125524
0.123831
0.121751
0.119527
0.114186
0.138578
0.138568
0.138551
0.138525
0.138493
0.138452
0.138402
0.138346
0.138281
0.138207
0.138125
0.138033
0.137931
0.137815
0.137686
0.137539
0.137373
0.137184
0.136968
0.136721
0.136437
0.136111
0.135738
0.135313
0.134838
0.134307
0.133705
0.133022
0.132244
0.131352
0.130329
0.129149
0.127782
0.126179
0.124289
0.121918
0.11909
0.114208
0.107034
0.138582
0.138578
0.138567
0.138545
0.138522
0.138486
0.138432
0.138368
0.138294
0.138208
0.138113
0.138009
0.137896
0.137774
0.137643
0.1375
0.137346
0.137179
0.136997
0.136799
0.136581
0.136342
0.136077
0.135778
0.135436
0.135048
0.134608
0.13411
0.133546
0.132908
0.132186
0.131368
0.13044
0.129384
0.128175
0.126786
0.125066
0.123228
0.118817
0.138785
0.138776
0.138761
0.138738
0.13871
0.138674
0.138631
0.138582
0.138526
0.138464
0.138394
0.138316
0.13823
0.138133
0.138025
0.137903
0.137765
0.137608
0.137429
0.137224
0.136989
0.13672
0.136412
0.136064
0.135674
0.135237
0.134744
0.134183
0.133544
0.132812
0.131969
0.130996
0.129865
0.128536
0.126964
0.125009
0.122609
0.11906
0.111626
0.138788
0.138783
0.138772
0.138752
0.138731
0.1387
0.138653
0.138598
0.138534
0.138461
0.13838
0.138293
0.138199
0.138098
0.137989
0.137873
0.137746
0.13761
0.137462
0.137301
0.137125
0.13693
0.136714
0.136469
0.13619
0.135873
0.135514
0.135107
0.134647
0.134127
0.133537
0.132868
0.132108
0.131243
0.13025
0.129106
0.127684
0.126164
0.122557
0.138957
0.138949
0.138936
0.138916
0.138891
0.138859
0.138822
0.138779
0.138731
0.138676
0.138617
0.13855
0.138476
0.138394
0.138303
0.1382
0.138083
0.137951
0.137801
0.13763
0.137434
0.137209
0.136954
0.136664
0.136341
0.135979
0.13557
0.135106
0.134577
0.13397
0.133272
0.132465
0.131526
0.130421
0.129106
0.127486
0.12541
0.12278
0.116173
0.138959
0.138955
0.138943
0.138924
0.138906
0.138878
0.138837
0.138789
0.138734
0.138672
0.138602
0.138528
0.138449
0.138364
0.138273
0.138176
0.138072
0.13796
0.137838
0.137706
0.137561
0.137401
0.137223
0.137021
0.13679
0.136528
0.136232
0.135897
0.135519
0.13509
0.134604
0.134053
0.133426
0.132712
0.131891
0.130945
0.129766
0.128503
0.12557
0.139102
0.139095
0.139084
0.139066
0.139043
0.139015
0.138982
0.138945
0.138902
0.138855
0.138803
0.138746
0.138682
0.138612
0.138533
0.138446
0.138347
0.138235
0.138108
0.137963
0.137797
0.137609
0.137394
0.137152
0.136882
0.136579
0.136238
0.13585
0.135408
0.134902
0.134319
0.133646
0.132861
0.131939
0.130836
0.12949
0.127701
0.125637
0.120133
0.139104
0.1391
0.139089
0.139071
0.139054
0.13903
0.138993
0.138951
0.138903
0.138848
0.138789
0.138725
0.138657
0.138585
0.138509
0.138428
0.138341
0.138247
0.138146
0.138036
0.137916
0.137783
0.137635
0.137467
0.137275
0.137057
0.136811
0.136532
0.136218
0.135862
0.135458
0.135
0.13448
0.133887
0.133204
0.132416
0.131435
0.130381
0.127997
0.139226
0.13922
0.139209
0.139193
0.139173
0.139148
0.139119
0.139086
0.139048
0.139007
0.138962
0.138912
0.138857
0.138796
0.138728
0.138652
0.138567
0.138472
0.138363
0.138239
0.138099
0.137939
0.137757
0.137553
0.137325
0.137071
0.136783
0.136457
0.136085
0.13566
0.135171
0.134604
0.133945
0.133171
0.132243
0.131119
0.129596
0.127893
0.123405
0.139228
0.139225
0.139214
0.139197
0.139182
0.139159
0.139127
0.139089
0.139046
0.138999
0.138947
0.138892
0.138833
0.138772
0.138707
0.138638
0.138565
0.138486
0.138401
0.138309
0.138209
0.138098
0.137974
0.137833
0.137671
0.137489
0.137282
0.137049
0.136786
0.136488
0.13615
0.135768
0.135333
0.134837
0.134265
0.133606
0.132786
0.131901
0.129961
0.139333
0.139327
0.139317
0.139302
0.139284
0.139262
0.139236
0.139207
0.139174
0.139137
0.139098
0.139054
0.139006
0.138953
0.138894
0.138828
0.138755
0.138672
0.138578
0.138472
0.138352
0.138215
0.13806
0.137887
0.137694
0.137478
0.137234
0.136958
0.136643
0.136283
0.13587
0.135391
0.134834
0.13418
0.133396
0.132451
0.131166
0.129727
0.126071
0.139336
0.139333
0.139324
0.139307
0.139293
0.139272
0.139242
0.139208
0.13917
0.139128
0.139082
0.139034
0.138984
0.138931
0.138875
0.138817
0.138754
0.138687
0.138616
0.138538
0.138453
0.138359
0.138255
0.138136
0.138
0.137845
0.137671
0.137475
0.137253
0.137002
0.136718
0.136396
0.13603
0.135612
0.135132
0.134577
0.133888
0.133142
0.131557
0.139427
0.139421
0.139412
0.139398
0.139381
0.139361
0.139338
0.139311
0.139282
0.13925
0.139215
0.139177
0.139134
0.139088
0.139036
0.138979
0.138915
0.138843
0.138762
0.13867
0.138566
0.138449
0.138316
0.138168
0.138003
0.137819
0.137611
0.137375
0.137107
0.136801
0.136449
0.136043
0.135569
0.135014
0.134349
0.133548
0.132465
0.131242
0.128249
0.13943
0.139429
0.13942
0.139403
0.13939
0.139371
0.139344
0.139313
0.139279
0.139241
0.1392
0.139157
0.139113
0.139067
0.139019
0.138969
0.138915
0.138858
0.138797
0.138731
0.138659
0.13858
0.138491
0.13839
0.138274
0.138143
0.137995
0.137828
0.13764
0.137427
0.137187
0.136914
0.136604
0.136251
0.135845
0.135376
0.134795
0.134163
0.132863
0.13951
0.139504
0.139495
0.139482
0.139466
0.139448
0.139427
0.139403
0.139377
0.139349
0.139318
0.139284
0.139246
0.139206
0.13916
0.13911
0.139054
0.138991
0.13892
0.138841
0.13875
0.138648
0.138534
0.138406
0.138265
0.138107
0.137928
0.137727
0.137497
0.137235
0.136935
0.136587
0.136183
0.135709
0.135142
0.13446
0.133545
0.132504
0.130042
0.139514
0.139513
0.139504
0.139488
0.139475
0.139458
0.139433
0.139404
0.139373
0.139339
0.139303
0.139265
0.139226
0.139185
0.139144
0.1391
0.139054
0.139005
0.138953
0.138896
0.138835
0.138767
0.138691
0.138605
0.138506
0.138394
0.138268
0.138125
0.137965
0.137783
0.137578
0.137346
0.137083
0.136783
0.136437
0.136039
0.135547
0.13501
0.133937
0.139583
0.139577
0.139569
0.139556
0.139542
0.139525
0.139506
0.139485
0.139461
0.139436
0.139408
0.139378
0.139345
0.139309
0.139269
0.139225
0.139175
0.13912
0.139058
0.138988
0.138909
0.13882
0.138721
0.13861
0.138488
0.138352
0.138198
0.138025
0.137827
0.137602
0.137344
0.137046
0.136699
0.136292
0.135807
0.135223
0.134446
0.13356
0.131527
0.139588
0.139587
0.139578
0.139563
0.139551
0.139534
0.139511
0.139485
0.139457
0.139426
0.139393
0.139359
0.139325
0.139289
0.139252
0.139214
0.139174
0.139132
0.139087
0.139038
0.138985
0.138927
0.138862
0.138788
0.138703
0.138607
0.138499
0.138376
0.138239
0.138083
0.137908
0.13771
0.137485
0.137228
0.136933
0.136593
0.136175
0.135717
0.134828
0.139648
0.139643
0.139634
0.139622
0.139609
0.139594
0.139576
0.139557
0.139536
0.139514
0.139489
0.139462
0.139432
0.1394
0.139365
0.139325
0.139282
0.139233
0.139178
0.139117
0.139048
0.13897
0.138883
0.138787
0.138681
0.138563
0.13843
0.138279
0.138109
0.137914
0.137691
0.137434
0.137136
0.136786
0.136368
0.135867
0.135204
0.134448
0.132764
0.139653
0.139652
0.139644
0.139629
0.139618
0.139602
0.139581
0.139557
0.139531
0.139503
0.139473
0.139443
0.139412
0.13938
0.139347
0.139314
0.139279
0.139242
0.139203
0.139161
0.139115
0.139065
0.139009
0.138945
0.138872
0.138789
0.138696
0.138591
0.138472
0.138338
0.138188
0.138017
0.137824
0.137604
0.137351
0.13706
0.136703
0.136311
0.135572
0.139706
0.139701
0.139693
0.139682
0.13967
0.139656
0.13964
0.139623
0.139604
0.139583
0.139561
0.139537
0.13951
0.139482
0.13945
0.139415
0.139376
0.139333
0.139285
0.13923
0.139169
0.139101
0.139025
0.13894
0.138848
0.138745
0.13863
0.138499
0.138351
0.138182
0.137989
0.137766
0.137508
0.137206
0.136846
0.136414
0.135846
0.135197
0.133799
0.139711
0.13971
0.139703
0.139688
0.139677
0.139663
0.139643
0.139621
0.139597
0.139571
0.139544
0.139517
0.139489
0.13946
0.139432
0.139402
0.139371
0.139339
0.139305
0.139268
0.139229
0.139185
0.139136
0.139081
0.139017
0.138946
0.138865
0.138774
0.138672
0.138556
0.138426
0.138279
0.138112
0.137923
0.137705
0.137455
0.137149
0.136813
0.136195
0.139758
0.139753
0.139745
0.139735
0.139724
0.139711
0.139697
0.139682
0.139665
0.139646
0.139626
0.139604
0.139581
0.139555
0.139527
0.139495
0.139461
0.139422
0.139379
0.139331
0.139277
0.139217
0.139149
0.139075
0.138994
0.138905
0.138804
0.138689
0.13856
0.138413
0.138245
0.138052
0.137828
0.137566
0.137254
0.13688
0.136393
0.135834
0.134669
0.139763
0.139762
0.139756
0.139742
0.13973
0.139717
0.139699
0.139678
0.139656
0.139632
0.139608
0.139583
0.139558
0.139532
0.139506
0.13948
0.139453
0.139425
0.139395
0.139362
0.139328
0.13929
0.139247
0.139199
0.139144
0.139082
0.139012
0.138933
0.138844
0.138744
0.138631
0.138504
0.138359
0.138196
0.138008
0.137792
0.137529
0.137239
0.136721
0.139805
0.139799
0.139791
0.139782
0.139773
0.139761
0.139748
0.139735
0.139719
0.139703
0.139685
0.139665
0.139644
0.139621
0.139596
0.139568
0.139537
0.139503
0.139465
0.139422
0.139373
0.13932
0.13926
0.139195
0.139124
0.139045
0.138956
0.138856
0.138743
0.138614
0.138467
0.138299
0.138104
0.137876
0.137606
0.137281
0.136861
0.136378
0.135404
0.139809
0.139809
0.139803
0.139789
0.139778
0.139765
0.139749
0.139729
0.139709
0.139687
0.139665
0.139642
0.139619
0.139596
0.139573
0.13955
0.139525
0.1395
0.139474
0.139446
0.139415
0.139382
0.139345
0.139302
0.139254
0.1392
0.139139
0.139071
0.138993
0.138907
0.138808
0.138697
0.138572
0.13843
0.138267
0.13808
0.137853
0.137603
0.137167
0.139847
0.139841
0.139834
0.139826
0.139817
0.139806
0.139795
0.139783
0.139769
0.139754
0.139739
0.139722
0.139703
0.139682
0.139659
0.139634
0.139607
0.139576
0.139541
0.139503
0.13946
0.139412
0.139359
0.139301
0.139238
0.139169
0.139091
0.139002
0.138903
0.13879
0.138662
0.138514
0.138344
0.138145
0.13791
0.137627
0.137264
0.136845
0.136028
0.139851
0.139852
0.139846
0.139832
0.139821
0.139809
0.139794
0.139776
0.139757
0.139736
0.139716
0.139695
0.139674
0.139653
0.139633
0.139612
0.13959
0.139568
0.139544
0.139519
0.139492
0.139463
0.13943
0.139393
0.139351
0.139304
0.13925
0.139191
0.139124
0.139048
0.138962
0.138866
0.138757
0.138633
0.138491
0.138329
0.138133
0.137916
0.137548
0.139885
0.13988
0.139872
0.139865
0.139857
0.139847
0.139837
0.139826
0.139814
0.139802
0.139788
0.139773
0.139756
0.139738
0.139717
0.139695
0.13967
0.139642
0.139611
0.139576
0.139538
0.139495
0.139448
0.139396
0.13934
0.139279
0.13921
0.139132
0.139044
0.138945
0.138832
0.138703
0.138553
0.138379
0.138174
0.137928
0.137613
0.137248
0.136573
0.13989
0.139891
0.139885
0.139871
0.139861
0.139849
0.139834
0.139818
0.1398
0.139781
0.139762
0.139743
0.139724
0.139705
0.139686
0.139667
0.139648
0.139628
0.139607
0.139585
0.139561
0.139535
0.139507
0.139474
0.139437
0.139395
0.139348
0.139296
0.139238
0.139172
0.139097
0.139013
0.138917
0.138809
0.138686
0.138544
0.138374
0.138186
0.137873
0.13992
0.139914
0.139907
0.139901
0.139893
0.139885
0.139876
0.139867
0.139856
0.139846
0.139834
0.13982
0.139806
0.139789
0.139771
0.13975
0.139728
0.139702
0.139674
0.139643
0.139608
0.13957
0.139527
0.139481
0.139432
0.139377
0.139316
0.139247
0.13917
0.139082
0.138982
0.138868
0.138737
0.138585
0.138405
0.138189
0.137917
0.137595
0.137051
0.139925
0.139926
0.13992
0.139907
0.139896
0.139885
0.139871
0.139856
0.139839
0.139822
0.139804
0.139786
0.139769
0.139751
0.139734
0.139717
0.139699
0.139682
0.139663
0.139644
0.139623
0.1396
0.139575
0.139546
0.139513
0.139476
0.139435
0.139389
0.139338
0.13928
0.139215
0.139142
0.139058
0.138964
0.138856
0.138732
0.138584
0.13842
0.138153
0.139952
0.139946
0.13994
0.139933
0.139926
0.139919
0.139912
0.139904
0.139896
0.139886
0.139876
0.139864
0.139851
0.139836
0.139819
0.139801
0.13978
0.139757
0.139732
0.139703
0.139672
0.139637
0.139599
0.139558
0.139513
0.139465
0.139411
0.13935
0.139281
0.139203
0.139115
0.139015
0.138899
0.138765
0.138607
0.138419
0.138182
0.137896
0.137459
0.139956
0.139958
0.139952
0.139939
0.139929
0.139918
0.139905
0.139891
0.139875
0.139859
0.139842
0.139826
0.139809
0.139793
0.139778
0.139762
0.139746
0.139731
0.139714
0.139697
0.139678
0.139658
0.139636
0.13961
0.139581
0.139549
0.139512
0.139472
0.139427
0.139376
0.139319
0.139255
0.139182
0.139099
0.139004
0.138896
0.138767
0.138624
0.138396
0.139981
0.139975
0.139969
0.139963
0.139957
0.139951
0.139945
0.139939
0.139932
0.139924
0.139915
0.139904
0.139892
0.139879
0.139864
0.139847
0.139828
0.139808
0.139784
0.139759
0.13973
0.139699
0.139664
0.139627
0.139587
0.139544
0.139495
0.139441
0.13938
0.139311
0.139234
0.139145
0.139043
0.138925
0.138786
0.13862
0.138415
0.13816
0.137804
0.139985
0.139987
0.139982
0.139969
0.139958
0.139948
0.139936
0.139922
0.139908
0.139892
0.139877
0.139861
0.139846
0.139831
0.139817
0.139803
0.139789
0.139775
0.13976
0.139745
0.139728
0.13971
0.13969
0.139668
0.139642
0.139613
0.139581
0.139546
0.139506
0.139461
0.139411
0.139355
0.139291
0.139218
0.139135
0.13904
0.138927
0.138802
0.138606
0.140007
0.140002
0.139996
0.139991
0.139985
0.139981
0.139976
0.139972
0.139966
0.139959
0.139951
0.139941
0.13993
0.139918
0.139904
0.139889
0.139872
0.139854
0.139833
0.13981
0.139784
0.139755
0.139724
0.139691
0.139655
0.139615
0.139572
0.139524
0.139469
0.139408
0.139339
0.13926
0.13917
0.139066
0.138944
0.138798
0.13862
0.138393
0.138099
0.140012
0.140014
0.140009
0.139996
0.139985
0.139976
0.139964
0.139951
0.139938
0.139923
0.139908
0.139894
0.13988
0.139866
0.139853
0.139841
0.139828
0.139815
0.139802
0.139788
0.139773
0.139757
0.13974
0.139719
0.139696
0.139671
0.139643
0.139611
0.139576
0.139537
0.139493
0.139443
0.139387
0.139324
0.139251
0.139167
0.139068
0.138958
0.13879
0.140031
0.140026
0.140021
0.140016
0.140012
0.140009
0.140006
0.140002
0.139997
0.139991
0.139984
0.139975
0.139965
0.139954
0.139942
0.139929
0.139913
0.139896
0.139878
0.139857
0.139833
0.139808
0.13978
0.139749
0.139717
0.139682
0.139643
0.139599
0.13955
0.139495
0.139434
0.139364
0.139284
0.139191
0.139084
0.138955
0.1388
0.1386
0.138353
0.140036
0.140038
0.140033
0.14002
0.14001
0.140001
0.13999
0.139978
0.139965
0.139951
0.139937
0.139924
0.139911
0.139898
0.139886
0.139875
0.139863
0.139851
0.13984
0.139827
0.139814
0.1398
0.139784
0.139766
0.139746
0.139723
0.139698
0.13967
0.139639
0.139604
0.139565
0.139522
0.139472
0.139417
0.139353
0.139279
0.139192
0.139096
0.138951
0.140054
0.140049
0.140043
0.140039
0.140037
0.140035
0.140034
0.140031
0.140026
0.140021
0.140014
0.140006
0.139998
0.139988
0.139977
0.139965
0.139952
0.139936
0.139919
0.1399
0.139879
0.139856
0.139831
0.139803
0.139774
0.139743
0.139708
0.139668
0.139625
0.139575
0.13952
0.139457
0.139386
0.139304
0.139208
0.139095
0.13896
0.138782
0.138574
0.140058
0.140061
0.140056
0.140043
0.140032
0.140024
0.140014
0.140002
0.139989
0.139976
0.139963
0.13995
0.139938
0.139927
0.139916
0.139905
0.139895
0.139885
0.139874
0.139863
0.139851
0.139838
0.139824
0.139808
0.13979
0.139769
0.139747
0.139722
0.139695
0.139664
0.13963
0.139591
0.139548
0.139499
0.139443
0.139378
0.139302
0.139217
0.139092
0.140074
0.140069
0.140064
0.140061
0.14006
0.14006
0.140059
0.140057
0.140053
0.140048
0.140043
0.140036
0.140028
0.14002
0.14001
0.139999
0.139987
0.139973
0.139958
0.139941
0.139922
0.139901
0.139878
0.139853
0.139827
0.139799
0.139767
0.139732
0.139693
0.139649
0.139599
0.139543
0.139479
0.139405
0.13932
0.13922
0.139101
0.138944
0.138768
0.140078
0.140081
0.140077
0.140063
0.140053
0.140045
0.140035
0.140024
0.140012
0.139999
0.139987
0.139975
0.139964
0.139953
0.139943
0.139934
0.139924
0.139915
0.139905
0.139895
0.139885
0.139873
0.139861
0.139846
0.13983
0.139812
0.139792
0.139769
0.139745
0.139718
0.139687
0.139654
0.139615
0.139572
0.139523
0.139466
0.139399
0.139324
0.139217
0.140093
0.140088
0.140083
0.140082
0.140083
0.140084
0.140083
0.140081
0.140078
0.140074
0.140069
0.140064
0.140057
0.14005
0.140041
0.140032
0.140021
0.140008
0.139994
0.139979
0.139961
0.139942
0.139922
0.139899
0.139876
0.13985
0.139822
0.139791
0.139755
0.139716
0.139671
0.139621
0.139563
0.139498
0.139422
0.139332
0.139227
0.139089
0.138939
0.140096
0.1401
0.140096
0.140082
0.140072
0.140064
0.140055
0.140044
0.140032
0.14002
0.140009
0.139998
0.139987
0.139978
0.139969
0.13996
0.139951
0.139943
0.139934
0.139925
0.139915
0.139905
0.139894
0.13988
0.139866
0.139849
0.139831
0.139812
0.13979
0.139766
0.139739
0.139709
0.139675
0.139637
0.139594
0.139544
0.139485
0.139419
0.139326
0.14011
0.140105
0.140101
0.140101
0.140104
0.140105
0.140105
0.140104
0.140101
0.140099
0.140095
0.14009
0.140085
0.140078
0.140071
0.140062
0.140052
0.140041
0.140028
0.140014
0.139998
0.139981
0.139962
0.139942
0.139921
0.139898
0.139872
0.139844
0.139812
0.139777
0.139737
0.139692
0.139641
0.139582
0.139514
0.139434
0.139341
0.139218
0.139089
0.140113
0.140118
0.140113
0.140099
0.140089
0.140082
0.140073
0.140062
0.14005
0.140039
0.140028
0.140018
0.140009
0.14
0.139992
0.139984
0.139976
0.139968
0.13996
0.139952
0.139943
0.139934
0.139923
0.139912
0.139898
0.139883
0.139867
0.13985
0.13983
0.139809
0.139785
0.139758
0.139728
0.139695
0.139657
0.139613
0.139561
0.139503
0.139423
0.140126
0.140121
0.140117
0.140121
0.140124
0.140125
0.140125
0.140125
0.140124
0.140122
0.140119
0.140115
0.14011
0.140105
0.140098
0.14009
0.140081
0.140071
0.140059
0.140047
0.140032
0.140017
0.14
0.139982
0.139962
0.139942
0.139919
0.139893
0.139865
0.139833
0.139797
0.139757
0.139711
0.139659
0.139598
0.139527
0.139446
0.139335
0.139224
0.140129
0.140134
0.140129
0.140114
0.140105
0.140098
0.140089
0.140078
0.140067
0.140057
0.140047
0.140037
0.140029
0.14002
0.140013
0.140005
0.139998
0.139991
0.139984
0.139976
0.139968
0.13996
0.13995
0.139939
0.139927
0.139914
0.139899
0.139884
0.139866
0.139847
0.139826
0.139802
0.139775
0.139746
0.139712
0.139674
0.139629
0.139577
0.139508
0.14014
0.140136
0.140133
0.140139
0.140143
0.140143
0.140145
0.140145
0.140145
0.140144
0.140142
0.140139
0.140134
0.140129
0.140123
0.140117
0.140109
0.140099
0.140089
0.140077
0.140065
0.14005
0.140035
0.140019
0.140001
0.139983
0.139962
0.139939
0.139913
0.139885
0.139853
0.139816
0.139776
0.139729
0.139675
0.139611
0.139545
0.139444
0.139346
0.140143
0.140148
0.140144
0.140129
0.14012
0.140113
0.140104
0.140093
0.140083
0.140073
0.140063
0.140055
0.140047
0.140039
0.140032
0.140025
0.140018
0.140012
0.140005
0.139998
0.139991
0.139983
0.139974
0.139965
0.139954
0.139941
0.139928
0.139914
0.139898
0.139881
0.139862
0.139841
0.139817
0.139791
0.139762
0.139728
0.139688
0.139643
0.139583
0.140154
0.140149
0.140148
0.140156
0.140159
0.14016
0.140163
0.140164
0.140164
0.140164
0.140163
0.14016
0.140157
0.140153
0.140148
0.140142
0.140135
0.140127
0.140118
0.140107
0.140096
0.140083
0.140069
0.140054
0.140038
0.140021
0.140002
0.139981
0.139958
0.139932
0.139904
0.139871
0.139834
0.139793
0.139745
0.139687
0.139634
0.139546
0.139458
0.140156
0.140161
0.140156
0.140142
0.140134
0.140127
0.140117
0.140107
0.140097
0.140087
0.140079
0.140071
0.140063
0.140056
0.14005
0.140043
0.140037
0.140031
0.140024
0.140018
0.140011
0.140004
0.139996
0.139987
0.139977
0.139966
0.139954
0.139941
0.139927
0.139911
0.139894
0.139876
0.139855
0.139832
0.139805
0.139775
0.139741
0.139701
0.139649
0.140166
0.140161
0.140162
0.140171
0.140172
0.140174
0.140178
0.140179
0.14018
0.140181
0.14018
0.140179
0.140177
0.140174
0.14017
0.140166
0.14016
0.140154
0.140146
0.140137
0.140127
0.140116
0.140103
0.140089
0.140075
0.140059
0.140041
0.140022
0.140001
0.139977
0.139951
0.139922
0.139889
0.139851
0.13981
0.139757
0.139714
0.139637
0.139561
0.140167
0.140169
0.140166
0.140153
0.140146
0.140139
0.14013
0.140119
0.14011
0.140101
0.140093
0.140086
0.140079
0.140072
0.140065
0.140059
0.140053
0.140048
0.140042
0.140036
0.14003
0.140023
0.140016
0.140007
0.139998
0.139988
0.139977
0.139965
0.139953
0.139939
0.139923
0.139907
0.139888
0.139867
0.139844
0.139818
0.139787
0.139752
0.139709
0.140174
0.140171
0.140174
0.14018
0.140182
0.140184
0.140187
0.140189
0.14019
0.140191
0.140192
0.140192
0.140191
0.14019
0.140189
0.140186
0.140183
0.140179
0.140174
0.140168
0.14016
0.140151
0.140141
0.140129
0.140116
0.140101
0.140084
0.140065
0.140044
0.140022
0.139997
0.13997
0.13994
0.139907
0.139872
0.139828
0.139789
0.13972
0.139654
0.140174
0.140175
0.140171
0.140162
0.140155
0.140149
0.14014
0.14013
0.140122
0.140114
0.140106
0.140099
0.140092
0.140085
0.140079
0.140074
0.140068
0.140063
0.140057
0.140052
0.140046
0.14004
0.140033
0.140026
0.140017
0.140008
0.139998
0.139988
0.139976
0.139963
0.13995
0.139935
0.139918
0.1399
0.139879
0.139856
0.139829
0.139797
0.139765
0.140179
0.140179
0.140181
0.140185
0.140188
0.14019
0.140193
0.140195
0.140196
0.140198
0.140199
0.140199
0.1402
0.1402
0.140199
0.140199
0.140197
0.140196
0.140193
0.14019
0.140187
0.140182
0.140177
0.14017
0.140162
0.140151
0.140137
0.140121
0.140101
0.140079
0.140055
0.140028
0.14
0.139969
0.139937
0.139898
0.139863
0.139799
0.13974
0.140178
0.140178
0.140174
0.140166
0.14016
0.140155
0.140148
0.14014
0.140132
0.140125
0.140118
0.140111
0.140104
0.140098
0.140092
0.140087
0.140082
0.140077
0.140072
0.140067
0.140061
0.140056
0.14005
0.140043
0.140035
0.140027
0.140018
0.140008
0.139998
0.139987
0.139974
0.139961
0.139946
0.139929
0.139911
0.13989
0.139867
0.139837