/*--------------------------------*- C++ -*----------------------------------*\
  =========                 |
  \\      /  F ield         | OpenFOAM: The Open Source CFD Toolbox
   \\    /   O peration     | Website:  https://openfoam.org
    \\  /    A nd           | Version:  7
     \\/     M anipulation  |
\*---------------------------------------------------------------------------*/
FoamFile
{
    version     2.0;
    format      ascii;
    class       volScalarField;
    location    "150";
    object      p;
}
// * * * * * * * * * * * * * * * * * * * * * * * * * * * * * * * * * * * * * //

dimensions      [0 2 -2 0 0 0 0];

internalField   nonuniform List<scalar> 
10720
(
-77.7421
-150.933
-237.353
-322.094
-400.145
-479.806
-550.194
-609.153
-660.433
-700.454
-731.14
-753.785
-769.08
-778.215
-781.694
-779.094
-771.286
-756.932
-737.164
-710.614
-678.307
-639.446
-596.247
-549.613
-503.022
-461.52
-424.11
-387.243
-350.643
-314.533
-278.736
-243.117
-207.57
-171.875
-135.782
-98.2015
-58.7912
-11.6819
35.4948
-3.90082
63.1344
135.136
202.608
260.449
304.626
331.502
341.303
339.696
327.67
307.264
283.849
260.169
237.241
215.753
195.524
176.622
158.625
141.276
124.073
106.97
89.6439
72.1919
55.016
40.0281
28.3007
18.7679
11.0374
5.11232
1.04755
-1.25486
-1.90158
-0.973744
1.5308
5.62139
11.7147
20.3597
35.2873
60.3765
31.4331
-24.2503
-86.5156
-152.556
-220.317
-289.615
-356.822
-419.838
-478.022
-529.6
-574.233
-611.873
-642.585
-666.462
-683.42
-693.134
-696.193
-692.178
-681.628
-663.932
-639.64
-608.479
-572.116
-531.687
-490.251
-452.09
-416.757
-381.49
-346.122
-310.971
-275.949
-240.957
-205.917
-170.626
-134.846
-97.5053
-58.2794
-11.2561
35.1603
81.5828
129.503
177.419
223.836
264.915
298.038
320.223
330.453
330.05
320.269
303.837
284.054
262.96
241.656
220.901
200.929
181.882
163.598
145.895
128.447
111.16
93.8225
76.519
59.6617
44.7376
32.6656
22.7132
14.5501
8.19826
3.71169
1.0191
0.0208744
0.63389
2.85959
6.71717
12.6272
21.1291
35.9685
60.0416
47.1047
-2.72033
-58.6778
-120.323
-184.156
-249.512
-314.793
-377.326
-435.542
-488.439
-534.778
-574.232
-606.633
-631.878
-650.132
-661.582
-666.472
-664.617
-656.2
-640.988
-619.274
-591.114
-557.755
-520.471
-481.798
-445.243
-410.925
-376.706
-342.271
-307.898
-273.53
-239.074
-204.464
-169.516
-134.002
-96.8719
-57.8178
-10.9825
34.9202
92.11
135.953
179.64
221.174
257.217
286.161
305.992
316.159
317.331
310.363
297.231
280.195
261.055
241.071
221.112
201.621
182.813
164.67
147.066
129.764
112.639
95.5485
78.557
62.0403
47.1772
34.8669
24.6939
16.3415
9.81047
5.14568
2.28486
1.12874
1.59615
3.68986
7.43744
13.2605
21.6962
36.413
59.5072
70.5764
28.6364
-19.159
-71.6814
-126.769
-184.358
-242.787
-300.242
-355.396
-407.11
-454.244
-496.121
-532.255
-562.334
-586.121
-603.624
-614.62
-618.82
-616.162
-606.522
-590.066
-566.998
-538.325
-505.364
-470.306
-436.147
-403.474
-370.717
-337.504
-304.12
-270.571
-236.787
-202.722
-168.21
-133.038
-96.1845
-57.3662
-10.8433
34.5404
108.17
144.364
180.707
215.876
246.793
272.214
290.339
300.518
303.017
298.375
288.103
273.894
257.212
239.208
220.725
202.267
184.122
166.393
149.041
131.927
114.958
98.059
81.3019
65.0392
50.239
37.7484
27.3595
18.7807
12.0058
7.08471
3.9673
2.56617
2.80948
4.7054
8.28907
13.9811
22.3063
36.8251
58.946
78.0158
40.7523
-1.92436
-49.1243
-98.7678
-151.261
-205.21
-258.983
-311.563
-361.793
-408.526
-450.967
-488.442
-520.414
-546.486
-566.43
-579.87
-586.686
-586.733
-579.995
-566.579
-546.76
-521.364
-491.639
-459.47
-427.357
-396.107
-364.619
-332.513
-300.062
-267.317
-234.221
-200.736
-166.706
-131.929
-95.4113
-56.8966
-10.7903
33.9221
111.505
143.574
175.864
207.12
234.628
257.539
274.422
284.594
288.114
285.414
277.612
265.986
251.68
235.68
218.775
201.49
184.173
167.017
150.066
133.273
116.585
99.9744
83.5274
67.5723
52.9122
40.3219
29.7577
20.9864
14.0038
8.86327
5.52825
3.92149
3.97705
5.70464
9.14471
14.7159
22.926
37.2173
58.3493
82.5702
49.5324
11.4932
-30.5658
-74.8242
-121.989
-170.769
-219.862
-268.521
-315.691
-360.391
-401.853
-439.335
-472.197
-499.935
-522.145
-538.444
-548.59
-552.306
-549.437
-539.98
-524.163
-502.656
-476.596
-447.625
-417.855
-388.252
-358.155
-327.243
-295.781
-263.873
-231.488
-198.603
-165.079
-130.726
-94.585
-56.4312
-10.8518
33.0728
112.263
140.584
169.296
197.282
222.043
242.952
258.832
268.941
273.216
272.059
266.301
256.934
244.846
230.853
215.652
199.737
183.474
167.104
150.741
134.407
118.103
101.845
85.7373
70.093
55.5952
42.9481
32.2344
23.2892
16.1101
10.7533
7.19652
5.37312
5.22504
6.76712
10.0466
15.4796
23.5537
37.5721
57.6993
83.2397
53.4352
19.0235
-19.0513
-59.039
-101.882
-146.423
-191.526
-236.689
-280.967
-323.512
-363.629
-400.558
-433.617
-462.229
-485.877
-504.08
-516.443
-522.633
-522.451
-515.882
-503.141
-484.792
-461.844
-435.712
-408.153
-380.179
-351.468
-321.765
-291.316
-260.266
-228.612
-196.348
-163.351
-129.449
-93.7193
-55.982
-11.0386
32.0065
110.056
135.552
161.531
186.96
209.545
228.841
243.873
253.859
258.681
258.73
254.643
247.201
237.105
225.009
211.503
197.027
181.93
166.48
150.834
135.073
119.246
103.412
87.6936
72.392
58.1001
45.4596
34.6434
25.5559
18.2026
12.6446
8.87531
6.84126
6.49297
7.85071
10.9679
16.2554
24.1787
37.8809
57.0023
82.1352
55.0715
23.7563
-10.8649
-47.1303
-86.1108
-126.743
-168.036
-209.662
-250.815
-290.759
-328.913
-364.572
-397.068
-425.794
-450.179
-469.668
-483.83
-492.289
-494.754
-491.114
-481.5
-466.349
-446.524
-423.238
-397.967
-371.723
-344.462
-316.022
-286.636
-256.483
-225.594
-193.978
-161.532
-128.105
-92.8198
-55.5496
-11.3428
30.7365
106.522
129.655
153.356
176.665
197.447
215.4
229.682
239.49
244.701
245.679
242.936
237.109
228.755
218.396
206.52
193.495
179.638
165.213
150.402
135.324
120.069
104.731
89.4522
74.5241
60.4771
47.8974
37.0208
27.819
20.3118
14.5664
10.5923
8.35073
7.80116
8.97022
11.9176
17.0476
24.8011
38.143
56.2633
79.7432
54.9627
26.253
-5.46238
-38.5799
-74.2368
-111.468
-149.38
-187.789
-225.988
-263.362
-299.438
-333.576
-365.149
-393.565
-418.226
-438.542
-454.021
-464.226
-468.798
-467.552
-460.576
-448.214
-431.193
-410.541
-387.482
-362.978
-337.184
-310.03
-281.74
-252.52
-222.429
-191.494
-159.629
-126.704
-91.8931
-55.1313
-11.7495
29.2862
102.106
123.286
145.092
166.621
185.877
202.694
216.298
225.891
231.366
233.053
231.387
226.898
220.042
211.238
200.88
189.266
176.669
163.332
149.438
135.129
120.527
105.753
90.9641
76.4476
62.687
50.2228
39.3327
30.0503
22.4142
16.4996
12.3323
9.88915
9.14011
10.1186
12.891
17.8524
25.4172
38.3572
55.4832
76.6215
53.7981
27.3353
-1.86188
-32.2529
-65
-99.2062
-134.064
-169.492
-204.87
-239.691
-273.576
-305.955
-336.282
-363.989
-388.48
-409.166
-425.518
-437.075
-443.439
-444.339
-439.789
-430.032
-415.662
-397.535
-376.658
-353.921
-329.622
-303.785
-276.625
-248.371
-219.112
-188.89
-157.639
-125.248
-90.9454
-54.7274
-12.2482
27.6877
97.2546
116.77
136.956
156.961
174.907
190.732
203.719
213.07
218.708
220.934
220.125
216.736
211.154
203.717
194.744
184.468
173.114
160.89
147.968
134.498
120.619
106.47
92.2217
78.1561
64.7236
52.4273
41.5718
32.2439
24.5055
18.4412
14.0933
11.4556
10.5095
11.2955
13.8871
18.6681
26.0249
38.5233
54.6637
73.0607
51.9285
27.4152
0.405375
-27.6102
-57.8085
-89.3444
-121.483
-154.203
-186.966
-219.356
-251.081
-281.639
-310.552
-337.307
-361.339
-382.065
-398.95
-411.492
-419.289
-421.98
-419.523
-412.079
-400.116
-384.337
-365.562
-344.585
-321.795
-297.291
-271.292
-244.036
-215.64
-186.165
-155.559
-123.737
-89.9801
-54.3422
-12.8332
25.9656
92.1979
110.281
129.067
147.749
164.551
179.5
191.912
201.008
206.731
209.361
209.23
206.744
202.236
195.987
188.257
179.224
169.063
157.946
146.024
133.44
120.339
106.869
93.2092
79.6334
66.5706
54.4933
43.7206
34.3849
26.5732
20.3813
15.868
13.0445
11.9054
12.498
14.9036
19.4925
26.6216
38.6416
53.8084
69.2722
49.6231
26.8231
1.73767
-24.1925
-52.1378
-81.2978
-110.995
-141.258
-171.607
-201.703
-231.324
-260.039
-287.443
-313.072
-336.404
-356.89
-373.999
-387.21
-396.123
-400.319
-399.69
-394.318
-384.558
-370.973
-354.218
-334.986
-313.711
-290.556
-265.741
-239.513
-212.012
-183.315
-153.389
-122.169
-88.9986
-53.98
-13.5026
24.1357
87.1022
103.934
121.493
139.008
154.804
168.963
180.837
189.671
195.418
198.345
198.751
197.001
193.394
188.168
181.54
173.642
164.606
154.566
143.647
131.976
119.693
106.948
93.9178
80.8707
68.2178
56.4076
45.766
36.4616
28.6074
22.3118
17.65
14.6514
13.3244
13.7236
15.9382
20.3232
27.2052
38.7132
52.9201
65.3953
47.0549
25.7746
2.39474
-21.6892
-47.6323
-74.6731
-102.177
-130.214
-158.357
-186.316
-213.935
-240.843
-266.7
-291.105
-313.581
-333.618
-350.705
-364.319
-374.063
-379.487
-380.41
-376.855
-369.077
-357.512
-342.676
-325.153
-305.387
-283.588
-259.977
-234.803
-208.226
-180.339
-151.126
-120.545
-88.0018
-53.644
-14.2531
22.2067
82.0653
97.7989
114.266
130.74
145.639
159.082
170.449
179.016
184.742
187.882
188.711
187.56
184.706
180.358
174.695
167.82
159.827
150.817
140.884
130.133
118.693
106.706
94.3409
81.8589
69.6547
58.1572
47.6937
38.4609
30.5965
24.223
19.4319
16.2704
14.7621
14.9689
16.9881
21.1577
27.7732
38.7391
52.0025
61.522
44.3481
24.4267
2.57145
-19.8654
-44.0181
-69.1603
-94.69
-120.711
-146.835
-172.815
-198.546
-223.711
-248.028
-271.155
-292.669
-312.096
-328.96
-342.75
-353.068
-359.468
-361.697
-359.722
-353.716
-344.005
-330.978
-315.114
-296.841
-276.398
-254.004
-229.908
-204.283
-177.236
-148.77
-118.864
-86.9898
-53.3371
-15.0805
20.187
77.1558
91.9085
107.401
122.937
137.03
149.815
160.702
169.004
174.673
177.961
179.119
178.456
176.229
172.628
167.808
161.845
154.808
146.766
137.785
127.946
117.357
106.148
94.4783
82.5933
70.8732
59.731
49.4908
40.3701
32.5292
26.1054
21.2057
17.8954
16.2138
16.2301
18.0501
21.9931
28.3233
38.7212
51.0591
57.713
41.5887
22.8905
2.408
-18.551
-41.0951
-64.5249
-88.2747
-112.465
-136.741
-160.895
-184.859
-208.366
-231.184
-253.02
-273.505
-292.21
-308.694
-322.476
-333.152
-340.297
-343.6
-342.981
-338.54
-330.509
-319.171
-304.903
-288.096
-268.999
-247.83
-224.83
-200.183
-174.006
-146.321
-117.126
-85.963
-53.0593
-15.9811
18.0855
72.4154
86.2858
100.897
115.585
128.944
141.12
151.555
159.591
165.178
168.561
169.975
169.706
168.002
165.036
160.946
155.792
149.621
142.477
134.401
125.449
115.708
105.289
94.3336
83.0714
71.8671
61.119
51.1453
42.177
34.3941
27.9486
22.9628
19.5195
17.6741
17.5031
19.1206
22.8264
28.8535
38.6615
50.0943
54.0094
38.8371
21.247
2.00823
-17.6175
-38.7055
-60.5855
-82.7228
-105.248
-127.834
-150.308
-172.629
-194.569
-215.941
-236.501
-255.925
-273.832
-289.819
-303.438
-314.286
-321.975
-326.142
-326.669
-323.595
-317.075
-307.3
-294.553
-279.175
-261.408
-241.465
-219.576
-195.928
-170.649
-143.778
-115.332
-84.9211
-52.811
-16.9481
15.9113
67.8682
80.9402
94.7497
108.663
121.349
132.959
142.967
150.739
156.225
159.662
161.271
161.322
160.052
157.623
154.164
149.722
144.33
138.01
130.784
122.684
113.773
104.142
93.913
83.2941
72.6334
62.3142
52.6466
43.8697
36.1795
29.7422
24.6942
21.1353
19.1369
18.7829
20.1957
23.6545
29.3615
38.5627
49.112
50.4393
36.1332
19.5529
1.44846
-16.9675
-36.7315
-57.2046
-77.8745
-98.8822
-119.925
-140.852
-161.646
-182.115
-202.108
-221.423
-239.781
-256.844
-272.249
-285.582
-296.453
-304.502
-309.346
-310.824
-308.93
-303.756
-295.414
-284.103
-270.105
-253.644
-234.921
-214.151
-191.522
-167.168
-141.141
-113.481
-83.8644
-52.5907
-17.9746
13.6738
63.5278
75.8735
88.9484
102.148
114.215
125.297
134.899
142.411
147.78
151.24
152.996
153.304
152.394
150.422
147.505
143.687
138.989
133.421
126.984
119.691
111.584
102.73
93.2287
83.2662
73.1707
63.3105
53.9853
45.4373
37.8745
31.4757
26.3905
22.7347
20.5956
20.0645
21.2711
24.474
29.8457
38.4274
48.1168
47.019
33.5059
17.8535
0.784848
-16.5246
-35.0826
-54.2702
-73.6026
-93.2227
-112.851
-132.354
-151.735
-170.829
-189.518
-207.634
-224.936
-241.132
-255.895
-268.846
-279.616
-287.868
-293.221
-295.475
-294.587
-290.598
-283.56
-273.592
-260.916
-245.729
-228.212
-208.566
-186.97
-163.564
-138.413
-111.574
-82.7918
-52.3969
-19.0522
11.385
59.4003
71.0804
83.479
96.0215
107.513
118.101
127.315
134.571
139.815
143.271
145.136
145.65
145.039
143.452
141.002
137.729
133.647
128.756
123.045
116.51
109.172
101.075
92.2956
82.9952
73.481
64.1048
55.1542
46.8699
39.4682
33.1383
28.042
24.3094
22.0431
21.3419
22.3419
25.2815
30.3041
38.259
47.1138
43.7575
30.975
16.1761
0.0624752
-16.2347
-33.6852
-51.6961
-69.8023
-88.1531
-106.482
-124.675
-142.749
-160.563
-178.021
-194.99
-211.263
-226.586
-240.668
-253.167
-263.738
-272.061
-277.776
-280.647
-280.602
-277.646
-271.78
-263.058
-251.639
-237.685
-221.356
-202.831
-182.279
-159.842
-135.595
-109.612
-81.7035
-52.2272
-20.1722
9.05656
55.4869
66.5535
78.3261
90.259
101.213
111.336
120.182
127.188
132.298
135.731
137.673
138.352
137.989
136.729
134.68
131.881
128.343
124.061
119.013
113.182
106.57
99.2016
91.1299
82.4912
73.5691
64.6965
56.1477
48.1591
40.9506
34.7198
29.6387
25.8505
23.4717
22.609
23.4031
26.0734
30.7355
38.0606
46.108
40.6601
28.5534
14.5435
-0.688532
-16.0526
-32.4851
-49.4129
-66.3947
-83.5786
-100.714
-117.698
-134.562
-151.182
-167.486
-183.366
-198.644
-213.103
-226.485
-238.482
-248.775
-257.061
-263.008
-266.355
-267.006
-264.939
-260.119
-252.541
-242.307
-229.539
-214.371
-196.958
-177.457
-156.006
-132.689
-107.596
-80.598
-52.0783
-21.3249
6.7007
51.785
62.284
73.4752
84.8408
95.2917
104.974
113.47
120.232
125.204
128.599
130.592
131.403
131.245
130.261
128.556
126.169
123.111
119.372
114.925
109.742
103.811
97.1376
89.7529
81.7682
73.4416
65.0864
56.9622
49.2975
42.3125
36.2101
31.1708
27.3488
24.8734
23.859
24.4494
26.846
31.1382
37.8357
45.1042
37.7274
26.2482
12.9715
-1.44308
-15.9454
-31.4372
-47.3669
-63.3125
-79.4217
-95.4565
-111.327
-127.071
-142.583
-157.806
-172.654
-186.98
-200.593
-213.267
-224.727
-234.683
-242.843
-248.913
-252.61
-253.824
-252.514
-248.616
-242.08
-232.953
-221.318
-207.277
-190.963
-172.515
-152.063
-129.699
-105.527
-79.4741
-51.9459
-22.5
4.33088
48.2911
58.2618
68.9107
79.7456
89.724
98.9915
107.152
113.677
118.508
121.852
123.877
124.791
124.803
124.053
122.643
120.614
117.977
114.721
110.816
106.226
100.927
94.9105
88.1866
80.8414
73.1077
65.2783
57.5962
50.2797
43.5459
37.5999
32.6285
28.7951
26.2399
25.0849
25.4751
27.5955
31.5113
37.5879
44.1076
34.9584
24.064
11.4697
-2.18384
-15.8868
-30.5072
-45.5129
-60.5018
-75.6169
-90.6367
-105.478
-120.187
-134.668
-148.881
-162.76
-176.176
-188.968
-200.939
-211.841
-221.414
-229.38
-235.478
-239.419
-241.076
-240.4
-237.307
-231.711
-223.612
-213.05
-200.099
-184.863
-167.462
-148.02
-126.629
-103.405
-78.3301
-51.8249
-23.6861
1.96125
44.9983
54.4761
64.617
74.9541
84.4876
93.3622
101.203
107.497
112.185
115.47
117.511
118.505
118.658
118.106
116.949
115.232
112.964
110.136
106.716
102.665
97.9494
92.5478
86.4527
79.7274
72.5791
65.2782
58.0504
51.102
44.6438
38.8804
34.0024
30.1801
27.5627
26.2792
26.4743
28.318
31.8537
37.3204
43.1232
32.3503
22.0016
10.0457
-2.89742
-15.8583
-29.6677
-43.8165
-57.9186
-72.1152
-86.1944
-100.084
-113.832
-127.357
-140.628
-153.594
-166.147
-178.149
-189.429
-199.765
-208.923
-216.642
-222.689
-226.78
-228.777
-228.624
-226.225
-221.47
-214.315
-204.764
-192.858
-178.676
-162.314
-143.885
-123.484
-101.234
-77.1642
-51.7099
-24.8732
-0.39501
41.8989
50.9167
60.5808
70.4486
79.5627
88.0644
95.599
101.668
106.213
109.433
111.476
112.533
112.802
112.418
111.48
110.031
108.087
105.637
102.65
99.0865
94.906
90.0761
84.5752
78.4455
71.8691
65.0938
58.3277
51.7624
45.6007
40.044
35.2835
31.4944
28.8332
27.4342
27.441
29.0099
32.1647
37.0366
42.1557
29.8985
20.0612
8.70335
-3.57474
-15.8431
-28.8971
-42.2486
-55.5275
-68.8712
-82.0805
-95.0882
-107.946
-120.58
-132.971
-145.082
-156.82
-168.067
-178.671
-188.441
-197.163
-204.595
-210.529
-214.69
-216.937
-217.205
-215.4
-211.39
-205.097
-196.491
-185.582
-172.421
-157.084
-139.669
-120.269
-99.0136
-75.9743
-51.5938
-26.049
-2.72325
38.986
47.5715
56.7873
66.2133
74.9302
83.0768
90.3178
96.1689
100.574
103.723
105.759
106.862
107.227
106.985
106.234
105.02
103.358
101.242
98.6421
95.5166
91.823
87.5211
82.5772
77.015
70.9926
64.735
58.432
52.2609
46.413
41.0837
36.4635
32.7294
30.0424
28.5422
28.3691
29.6671
32.4435
36.7395
41.2096
27.5974
18.2411
7.44502
-4.20948
-15.8295
-28.1783
-40.7856
-53.298
-65.8498
-78.2508
-90.4396
-102.47
-114.277
-125.85
-137.158
-148.127
-158.653
-168.606
-177.816
-186.089
-193.208
-198.976
-203.143
-205.56
-206.163
-204.857
-201.501
-195.988
-188.259
-178.295
-166.119
-151.788
-135.382
-116.991
-96.7474
-74.7574
-51.4702
-27.202
-5.00955
36.2513
44.4306
53.2234
62.2308
70.5714
78.38
85.3402
90.9813
95.2472
98.3215
100.342
101.479
101.923
101.803
101.213
100.202
98.7879
96.9657
94.7084
91.9758
88.7237
84.9062
80.4808
75.4553
69.9649
64.2128
58.3702
52.599
47.078
41.9947
37.5351
33.8765
31.1823
29.5954
29.2524
30.2859
32.6896
36.4319
40.2888
25.4416
16.5386
6.27108
-4.79734
-15.8096
-27.4981
-39.41
-51.2074
-63.0212
-74.67
-86.0983
-97.3592
-108.396
-119.206
-129.764
-140.008
-149.851
-159.178
-167.839
-175.661
-182.445
-188.01
-192.129
-194.649
-195.508
-194.618
-191.829
-187.018
-180.097
-171.022
-159.794
-146.443
-131.037
-113.657
-94.4362
-73.512
-51.3304
-28.3203
-7.23996
33.687
41.483
49.8757
58.4863
66.4698
73.9567
80.6471
86.0856
90.2148
93.213
95.2108
96.3725
96.8819
96.8647
96.4137
95.5791
94.3811
92.8173
90.864
88.4825
85.6286
82.253
78.3071
73.7853
68.8023
63.5394
58.1501
52.7801
47.5952
42.7723
38.4917
34.9279
32.2447
30.5863
30.0848
30.8626
32.9023
36.1161
39.3969
23.4255
14.9494
5.18132
-5.33538
-15.7766
-26.8454
-38.1062
-49.2354
-60.3605
-71.308
-82.0285
-92.5739
-102.895
-112.992
-122.849
-132.411
-141.607
-150.336
-158.463
-165.837
-172.274
-177.607
-181.633
-184.2
-185.249
-184.699
-182.401
-178.214
-172.033
-163.791
-153.466
-141.068
-126.645
-110.274
-92.0848
-72.2347
-51.1674
-29.3938
-9.40094
31.2845
38.7184
46.7324
54.967
62.6105
69.7908
76.2223
81.4646
85.4601
88.3812
90.352
91.5294
92.0919
92.1623
91.8317
91.1507
90.1419
88.8054
87.1206
85.0518
82.5555
79.5814
76.0764
72.0248
67.5217
62.7282
57.7805
52.8092
47.9653
43.4142
39.3279
35.8767
33.2219
31.5075
30.8603
31.3935
33.0812
35.7942
38.5368
21.5426
13.4705
4.1735
-5.82175
-15.7261
-26.2122
-36.8618
-47.3663
-57.8471
-68.1406
-78.2009
-88.0806
-97.7338
-107.166
-116.367
-125.29
-133.875
-142.033
-149.646
-156.577
-162.663
-167.743
-171.644
-174.211
-175.391
-175.115
-173.235
-169.601
-164.093
-156.627
-147.158
-135.68
-122.222
-106.851
-89.6942
-70.9237
-50.9739
-30.4104
-11.4797
29.0357
36.1271
43.7822
51.659
58.9789
65.8668
72.0497
77.1027
80.9675
83.811
85.7514
86.9378
87.5441
87.6889
87.4622
86.9149
86.0714
84.9347
83.4871
81.6959
79.5196
76.909
73.8076
70.1913
66.1391
61.7926
57.272
52.6925
48.1905
43.919
40.04
36.7167
34.1068
32.3522
31.5734
31.875
33.2256
35.4678
37.7106
19.7865
12.0969
3.24597
-6.25647
-15.6548
-25.5928
-35.6676
-45.5857
-55.4637
-65.1461
-74.5896
-83.8482
-92.8795
-101.691
-110.279
-118.603
-126.611
-134.228
-141.346
-147.846
-153.578
-158.394
-162.141
-164.672
-165.937
-165.876
-164.349
-161.201
-156.302
-149.554
-140.894
-130.298
-117.781
-103.398
-87.2688
-69.5762
-50.7401
-31.3604
-13.4635
26.933
33.6996
41.0137
48.5498
55.5614
62.1698
68.1146
72.9845
76.7222
79.4885
81.3956
82.5857
83.2273
83.4361
83.2987
82.868
82.1692
81.2078
79.9694
78.4245
76.5344
74.2507
71.5165
68.3017
64.6702
60.7464
56.6353
52.4375
48.2749
44.287
40.6247
37.4432
34.8935
33.1141
32.2186
32.3039
33.335
35.1378
36.9197
18.1513
10.8241
2.39613
-6.64007
-15.5606
-24.9811
-34.5153
-43.8824
-53.1951
-62.3051
-71.173
-79.8512
-88.302
-96.5352
-104.55
-112.312
-119.778
-126.881
-133.528
-139.609
-144.991
-149.537
-153.112
-155.575
-156.884
-156.989
-155.757
-153.034
-148.683
-142.595
-134.695
-124.942
-113.336
-99.9225
-84.8125
-68.1902
-50.4601
-32.2329
-15.3412
24.9687
31.4265
38.4167
45.6286
52.3457
58.6867
64.403
69.0963
72.7105
75.4
77.2719
78.4615
79.1313
79.3948
79.3352
79.006
78.434
77.6263
76.572
75.2452
73.6098
71.6196
69.2182
66.3715
63.1304
59.6036
55.882
52.0526
48.2233
44.5198
41.0811
38.0521
35.5766
33.7875
32.7912
32.677
33.4086
34.8047
36.1646
16.6307
9.64761
1.62079
-6.97336
-15.4422
-24.3744
-33.3989
-42.248
-51.0298
-59.6038
-67.9327
-76.0686
-83.9773
-91.6696
-99.1481
-106.384
-113.341
-119.959
-126.156
-131.834
-136.873
-141.146
-144.535
-146.909
-148.229
-148.457
-147.47
-145.115
-141.254
-135.771
-128.581
-119.629
-108.903
-96.4359
-82.3289
-66.7644
-50.1263
-33.0198
-17.1033
23.1352
29.2997
35.9814
42.8841
49.3198
55.4051
60.9017
65.4253
68.9196
71.5335
73.3684
74.5537
75.2464
75.5561
75.5641
75.3235
74.8626
74.1898
73.2976
72.1634
70.7543
69.0266
66.9258
64.4148
61.534
58.3776
55.0237
51.5471
48.0419
44.6203
41.4087
38.541
36.152
34.3676
33.2868
32.9915
33.4456
34.4688
35.4452
15.2187
8.56249
0.916858
-7.25797
-15.2996
-23.7699
-32.3135
-40.6751
-48.9582
-57.0288
-64.8532
-72.4816
-79.8833
-87.0702
-94.0478
-100.792
-107.27
-113.43
-119.2
-124.492
-129.197
-133.199
-136.394
-138.661
-139.967
-140.281
-139.494
-137.458
-134.033
-129.103
-122.572
-114.378
-104.496
-92.9472
-79.8226
-65.298
-49.7323
-33.7129
-18.7414
21.4253
27.3111
33.6987
40.3057
46.4728
52.3131
57.5988
61.9589
65.3367
67.8763
69.6737
70.8521
71.5626
71.9115
71.9781
71.8151
71.451
70.8969
70.1473
69.1829
67.9743
66.4809
64.6505
62.4445
59.8943
57.0813
54.0722
50.9305
47.7377
44.5927
41.609
38.9089
36.6167
34.8506
33.7017
33.2446
33.4452
34.1294
34.7603
13.9093
7.564
0.280961
-7.4957
-15.1323
-23.1657
-31.2549
-39.1565
-46.9703
-54.5683
-61.9199
-69.0734
-76.0009
-82.7159
-89.2247
-95.5076
-101.537
-107.267
-112.633
-117.556
-121.939
-125.674
-128.671
-130.818
-132.089
-132.462
-131.836
-130.073
-127.036
-122.607
-116.687
-109.206
-100.128
-89.4668
-77.2987
-63.7896
-49.2732
-34.3051
-20.2473
19.8323
25.4524
31.5596
37.8842
43.7943
49.3999
54.4832
58.6853
61.9507
64.4175
66.1767
67.3454
68.0696
68.4523
68.5695
68.4741
68.1952
67.7448
67.1206
66.3059
65.2747
63.9897
62.4016
60.4715
58.2233
55.7267
53.0389
50.213
47.3187
44.4423
41.6845
39.1556
36.9691
35.2336
34.0332
33.4343
33.4063
33.7858
34.1082
12.6967
6.64756
-0.290422
-7.68859
-14.9411
-22.5608
-30.2201
-37.688
-45.0593
-52.2131
-59.1208
-65.8292
-72.313
-78.5866
-84.6576
-90.509
-96.1172
-101.443
-106.427
-111
-115.073
-118.55
-121.347
-123.367
-124.588
-124.995
-124.498
-122.968
-120.274
-116.298
-110.942
-104.129
-95.8151
-86.0046
-74.7623
-62.2406
-48.7437
-34.7906
-21.6156
18.3495
23.7165
29.5557
35.6105
41.2745
46.6552
51.5437
55.5939
58.7503
61.1457
62.8665
64.0238
64.758
65.1691
65.3305
65.2942
65.0896
64.7305
64.2161
63.5332
62.6586
61.5585
60.1868
58.5054
56.5317
54.3255
51.935
49.4046
46.7931
44.1752
41.639
39.2827
37.2084
35.5149
34.2788
33.5588
33.3279
33.4365
33.4864
11.5756
5.80844
-0.800788
-7.83898
-14.7269
-21.9543
-29.2072
-36.2652
-43.2197
-49.9554
-56.4462
-62.7375
-68.806
-74.6664
-80.3275
-85.7754
-90.9894
-95.9351
-100.56
-104.801
-108.579
-111.805
-114.406
-116.294
-117.453
-117.875
-117.48
-116.149
-113.757
-110.191
-105.352
-99.1606
-91.5687
-82.5706
-72.2191
-60.6514
-48.1417
-35.1657
-22.8414
16.9704
22.0958
27.6793
33.4758
38.9041
44.0691
48.7705
52.6743
55.7251
58.0507
59.7332
60.8773
61.6189
62.054
62.2536
62.2686
62.1293
61.85
61.4319
60.8647
60.128
59.1916
58.0127
56.5544
54.8294
52.8881
50.7711
48.5153
46.1699
43.7983
41.4773
39.2928
37.3355
35.694
34.4374
33.6168
33.2091
33.0801
32.8919
10.5404
5.04229
-1.25373
-7.94923
-14.4909
-21.3461
-28.2137
-34.8845
-41.4461
-47.788
-53.8871
-59.787
-65.4662
-70.9401
-76.2183
-81.2886
-86.1335
-90.7228
-95.0097
-98.9375
-102.434
-105.42
-107.829
-109.585
-110.674
-111.095
-110.78
-109.618
-107.491
-104.293
-99.9281
-94.315
-87.4013
-79.1742
-69.675
-59.0238
-47.4652
-35.4268
-23.9217
15.6892
20.584
25.9227
31.4721
36.6747
41.6326
46.1539
49.9164
52.8654
55.123
56.7672
57.8969
58.643
59.0981
59.3307
59.3907
59.3083
59.0987
58.765
58.2992
57.6838
56.8918
55.8843
54.6258
53.1246
51.4238
49.5573
47.5549
45.4579
43.3194
41.2051
39.1896
37.3524
35.7714
34.5085
33.6074
33.0487
32.7143
32.321
9.5861
4.34465
-1.65273
-8.02193
-14.2344
-20.7364
-27.2391
-33.5437
-39.734
-45.7051
-51.4357
-56.9682
-62.2825
-67.3946
-72.3144
-77.0319
-81.5317
-85.7873
-89.7569
-93.3898
-96.6206
-99.3771
-101.6
-103.224
-104.239
-104.649
-104.395
-103.375
-101.482
-98.6154
-94.682
-89.6032
-83.3236
-75.8245
-67.1357
-57.3607
-46.7131
-35.5726
-24.8549
14.4999
19.1744
24.2791
29.5917
34.5779
39.3368
43.6851
47.3114
50.1617
52.3529
53.9589
55.0733
55.8217
56.2935
56.5543
56.6533
56.6206
56.472
56.2121
55.835
55.326
54.6613
53.8054
52.7251
51.4248
49.9413
48.3027
46.5331
44.6661
42.7463
40.829
38.9781
37.2621
35.7488
34.4926
33.5303
32.8461
32.3373
31.77
8.70775
3.71137
-2.00119
-8.05935
-13.9589
-20.1254
-26.2822
-32.2403
-38.0796
-43.7013
-49.0855
-54.2729
-59.2454
-64.0186
-68.6033
-72.9906
-77.1678
-81.1113
-84.7837
-88.1391
-91.1194
-93.6583
-95.7028
-97.1981
-98.1361
-98.5265
-98.318
-97.4194
-95.732
-93.1618
-89.6215
-85.0348
-79.3456
-72.5298
-64.6076
-55.6654
-45.8865
-35.6029
-25.6404
13.3969
17.861
22.7415
27.8273
32.6059
37.1739
41.3554
44.8505
47.6052
49.7318
51.2998
52.3978
53.1465
53.6318
53.9169
54.0498
54.0603
53.9648
53.7692
53.4696
53.0539
52.5008
51.7788
50.8567
49.7363
48.4483
47.016
45.4587
43.8037
42.0874
40.3563
38.664
37.0688
35.6287
34.3909
33.3858
32.6004
31.9467
31.2346
7.90063
3.1381
-2.30242
-8.06412
-13.6661
-19.5136
-25.3423
-30.9723
-36.4804
-41.7725
-46.8306
-51.6938
-56.3455
-60.8018
-65.0729
-69.1517
-73.0275
-76.6794
-80.0736
-83.1692
-85.9135
-88.2471
-90.1222
-91.4926
-92.3536
-92.7186
-92.544
-91.7481
-90.2409
-87.9364
-84.7527
-80.6179
-75.4755
-69.2982
-62.0971
-53.9418
-44.9874
-35.519
-26.2799
12.3751
16.6378
21.3037
26.1719
30.7515
35.1359
39.157
42.5253
45.1876
47.2511
48.7814
49.8623
50.6094
51.1055
51.4112
51.5733
51.6213
51.5719
51.4324
51.2003
50.8658
50.4107
49.8066
49.0247
48.0644
46.9514
45.705
44.3403
42.8792
41.3512
39.7946
38.2537
36.7776
35.4149
34.2057
33.1748
32.3112
31.5402
30.7107
7.16019
2.62114
-2.5598
-8.03874
-13.3575
-18.9018
-24.4191
-29.7384
-34.9333
-39.9146
-44.6655
-49.2242
-53.5753
-57.7345
-61.7124
-65.5031
-69.0976
-72.4771
-75.6116
-78.4642
-80.9873
-83.128
-84.8429
-86.0938
-86.8789
-87.2147
-87.0647
-86.356
-85.0075
-82.9406
-80.0801
-76.3582
-71.7205
-66.1367
-59.61
-52.1948
-44.019
-35.3237
-26.7756
11.4292
15.4995
19.9598
24.6194
29.0078
33.2158
37.0823
40.3282
42.901
44.9027
46.3957
47.4587
48.2027
48.7071
49.03
49.2172
49.2976
49.2883
49.1972
49.0238
48.7601
48.3905
47.8899
47.2316
46.4135
45.4566
44.377
43.1861
41.9013
40.5462
39.1518
37.7545
36.3944
35.1119
33.9401
32.8987
31.9783
31.1158
30.1939
6.48209
2.15657
-2.77638
-7.98569
-13.0348
-18.2909
-23.5125
-28.5377
-33.4363
-38.1242
-42.5862
-46.8587
-50.9276
-54.8086
-58.5124
-62.034
-65.3659
-68.4914
-71.3837
-74.0095
-76.3262
-78.2859
-79.8505
-80.9878
-81.6995
-82.0042
-81.8718
-81.2372
-80.0284
-78.1739
-75.6056
-72.2604
-68.0863
-63.0514
-57.1524
-50.4296
-42.9856
-35.0207
-27.1312
10.5547
14.4406
18.7041
23.1634
27.3683
31.4065
35.124
38.2519
40.7377
42.6794
44.1353
45.1798
45.919
46.4295
46.7667
46.9751
47.0833
47.1085
47.0595
46.9368
46.7346
46.4394
46.0292
45.4798
44.7873
43.9691
43.0382
42.0034
40.878
39.6808
38.4363
37.1738
35.9257
34.7248
33.5977
32.5596
31.6019
30.6715
29.6802
5.86217
1.74085
-2.95527
-7.90731
-12.6997
-17.6817
-22.6225
-27.3691
-31.9877
-36.3987
-40.5884
-44.5918
-48.3961
-52.0166
-55.4641
-58.7346
-61.8215
-64.7103
-67.3772
-69.7917
-71.916
-73.7068
-75.1309
-76.1615
-76.8031
-77.076
-76.9557
-76.3846
-75.2988
-73.6344
-71.3298
-68.3271
-64.5774
-60.048
-54.7302
-48.6518
-41.8925
-34.6153
-27.3519
9.74687
13.4563
17.5309
21.7982
25.8267
29.7016
33.2756
36.2892
38.6908
40.5736
41.9927
43.0181
43.7514
44.2657
44.6145
44.8408
44.9728
45.0276
45.0146
44.9357
44.7865
44.5559
44.2246
43.7705
43.1888
42.4933
41.6945
40.7991
39.8172
38.7632
37.6562
36.5196
35.3787
34.2594
33.1829
32.16
31.1825
30.2056
29.1657
5.29658
1.37036
-3.09928
-7.80598
-12.3536
-17.0751
-21.7495
-26.2318
-30.5854
-34.735
-38.6683
-42.4189
-45.9749
-49.3516
-52.5596
-55.5956
-58.4544
-61.1231
-63.58
-65.7984
-67.7436
-69.3776
-70.6708
-71.6018
-72.177
-72.4184
-72.3065
-71.7902
-70.813
-69.3185
-67.2515
-64.5597
-61.1969
-57.131
-52.3489
-46.8672
-40.7456
-34.1136
-27.4436
9.00134
12.5419
16.4354
20.5183
24.3773
28.0951
31.5305
34.4335
36.7534
38.5787
39.9614
40.9669
41.6929
42.2093
42.5672
42.8084
42.9605
43.0404
43.0583
43.017
42.9135
42.7387
42.4758
42.105
41.6204
41.033
40.3511
39.5796
38.726
37.8012
36.8198
35.7997
34.7606
33.7223
32.7007
31.703
30.7211
29.7167
28.6471
4.78153
1.04196
-3.21136
-7.68384
-11.9985
-16.472
-20.8933
-25.1252
-29.2282
-33.1312
-36.823
-40.3357
-43.6591
-46.8074
-49.7915
-52.6089
-55.2553
-57.7191
-59.9813
-62.0174
-63.7967
-65.2854
-66.4573
-67.2959
-67.8091
-68.0203
-67.9136
-67.4449
-66.5641
-65.2217
-63.3686
-60.9578
-57.9468
-54.3041
-50.0133
-45.0818
-39.5516
-33.5225
-27.4133
8.31407
11.6928
15.4126
19.3184
23.0144
26.5808
29.8826
32.6788
34.9192
36.6882
38.0346
39.0199
39.7374
40.254
40.6188
40.8721
41.0409
41.1422
41.1863
41.177
41.1126
40.9858
40.7822
40.4838
40.084
39.5914
39.0124
38.3507
37.6114
36.8026
35.9351
35.0224
34.0791
33.1199
32.1563
31.1922
30.219
29.2039
28.121
4.31349
0.752419
-3.29416
-7.54306
-11.6358
-15.8733
-20.0543
-24.0489
-27.9148
-31.5849
-35.0492
-38.3384
-41.4434
-44.3781
-47.1534
-49.7668
-52.2156
-54.4891
-56.5704
-58.4378
-60.0638
-61.4181
-62.4782
-63.2313
-63.6872
-63.8697
-63.7667
-63.3396
-62.5445
-61.338
-59.6774
-57.5202
-54.8279
-51.5702
-47.7282
-43.3018
-38.3177
-32.8498
-27.2684
7.68114
10.9047
14.458
18.1937
21.733
25.1537
28.3263
31.0191
33.1821
34.896
36.2064
37.1709
37.8787
38.394
38.7635
39.0265
39.2092
39.3281
39.3943
39.4121
39.3812
39.2954
39.1427
38.907
38.5811
38.1713
37.6827
37.1176
36.4797
35.7744
35.0098
34.1953
33.3417
32.4592
31.5554
30.6314
29.6781