/*--------------------------------*- C++ -*----------------------------------*\
  =========                 |
  \\      /  F ield         | OpenFOAM: The Open Source CFD Toolbox
   \\    /   O peration     | Website:  https://openfoam.org
    \\  /    A nd           | Version:  7
     \\/     M anipulation  |
\*---------------------------------------------------------------------------*/
FoamFile
{
    version     2.0;
    format      ascii;
    class       surfaceScalarField;
    location    "150";
    object      phi;
}
// * * * * * * * * * * * * * * * * * * * * * * * * * * * * * * * * * * * * * //

dimensions      [0 3 -1 0 0 0 0];

internalField   nonuniform List<scalar> 
21254
(
-0.238164
0.257721
-0.0195565
0.279714
-0.0219931
0.298603
-0.0188895
0.315463
-0.0168599
0.331425
-0.0159613
0.34418
-0.0127553
0.354264
-0.0100837
0.362474
-0.00821036
0.367895
-0.00542046
0.371589
-0.00369403
0.373805
-0.00221624
0.374393
-0.00058836
0.373729
0.000664044
0.371735
0.00199442
0.368338
0.00339716
0.363819
0.0045189
0.358004
0.00581524
0.351
0.00700332
0.34268
0.00832065
0.333289
0.00939036
0.322523
0.0107669
0.310965
0.0115574
0.298896
0.0120697
0.287622
0.0112734
0.278341
0.00928095
0.27037
0.00797099
0.262585
0.00778577
0.254667
0.00791728
0.246284
0.00838327
0.237346
0.00893807
0.227827
0.00951992
0.217716
0.0101112
0.206947
0.0107692
0.19528
0.0116673
0.182186
0.0130943
0.166608
0.0155789
0.146198
0.0204122
0.115611
0.0305894
0.0950009
0.0206613
-0.215076
-0.0230881
-0.191175
-0.0239006
-0.161768
-0.0294078
-0.129468
-0.0322999
-0.0953813
-0.0340864
-0.0601099
-0.0352715
-0.0252448
-0.0348651
0.00712389
-0.0323686
0.0364913
-0.0293674
0.0624638
-0.0259725
0.0846577
-0.0221938
0.103482
-0.0188239
0.119301
-0.015819
0.132491
-0.0131904
0.143775
-0.0112834
0.15348
-0.00970551
0.162089
-0.00860857
0.169836
-0.00774759
0.177035
-0.00719905
0.18381
-0.00677431
0.190331
-0.00652088
0.196588
-0.00625791
0.202514
-0.00592589
0.207479
-0.00496447
0.211294
-0.00381552
0.21424
-0.00294595
0.216313
-0.00207328
0.217632
-0.00131915
0.218205
-0.000572483
0.217972
0.000232183
0.21685
0.00112191
0.214976
0.00187416
0.212473
0.00250275
0.209403
0.0030701
0.205624
0.00377834
0.200713
0.00491045
0.193502
0.0072113
0.178673
0.0148267
0.156364
0.0223093
-0.21734
0.238886
-0.0411018
0.26092
-0.0440275
0.283927
-0.0418965
0.30539
-0.0383227
0.326327
-0.0368985
0.345728
-0.0321558
0.363188
-0.0275444
0.378968
-0.02399
0.392662
-0.019114
0.404327
-0.0153597
0.413988
-0.0118766
0.421753
-0.00835361
0.427927
-0.00550953
0.432711
-0.00279013
0.436001
0.000107044
0.437481
0.00303923
0.437069
0.00622779
0.434883
0.00918902
0.430419
0.0127847
0.423962
0.0158476
0.415109
0.0196198
0.40415
0.0225163
0.391079
0.0251411
0.376532
0.02582
0.361775
0.0240383
0.347254
0.0224919
0.33307
0.0219698
0.319447
0.0215399
0.306211
0.02162
0.293218
0.021931
0.280264
0.0224747
0.267189
0.023186
0.253745
0.0242135
0.239719
0.0256945
0.224712
0.0281019
0.207729
0.0325629
0.18749
0.0406534
0.155136
0.0629459
0.112088
0.0637434
-0.195319
-0.0451096
-0.171719
-0.0475001
-0.144087
-0.0570406
-0.114855
-0.0615318
-0.083808
-0.0651332
-0.0513787
-0.0677007
-0.0190897
-0.0671541
0.0117842
-0.0632424
0.0400836
-0.0576668
0.0652939
-0.0511827
0.0872966
-0.0441965
0.106399
-0.0379261
0.123032
-0.0324517
0.13742
-0.0275786
0.150006
-0.0238701
0.161092
-0.0207915
0.170969
-0.018485
0.179945
-0.0167233
0.188274
-0.0155282
0.196069
-0.0145693
0.203489
-0.0139415
0.210606
-0.0133743
0.217344
-0.012664
0.223242
-0.0108631
0.228025
-0.00859867
0.231898
-0.00681869
0.234857
-0.00503212
0.236952
-0.0034148
0.238238
-0.00185836
0.238863
-0.000392569
0.238917
0.00106747
0.238341
0.00244978
0.237009
0.003835
0.234878
0.00520007
0.231896
0.00675991
0.227819
0.00898769
0.222638
0.0123914
0.211727
0.0257358
0.190867
0.0431694
-0.21094
0.232682
-0.0628432
0.254587
-0.0659328
0.278227
-0.0655362
0.299848
-0.0599442
0.320415
-0.0574654
0.340108
-0.0518486
0.357636
-0.0450724
0.373409
-0.0397632
0.386985
-0.0326898
0.398646
-0.0270202
0.40842
-0.0216511
0.416477
-0.0164099
0.422637
-0.0116695
0.42737
-0.00752361
0.430417
-0.00293944
0.43252
0.000936321
0.433374
0.00537309
0.433333
0.00923039
0.432072
0.0140463
0.429535
0.0183845
0.425611
0.0235437
0.420133
0.0279944
0.413074
0.0322
0.404527
0.0343664
0.395007
0.0335586
0.384571
0.0329284
0.373105
0.0334358
0.360751
0.0338934
0.34768
0.0346916
0.333986
0.0356251
0.319815
0.0366449
0.305201
0.0378008
0.290085
0.0393296
0.274294
0.0414851
0.25744
0.0449563
0.238529
0.0514745
0.21638
0.0628037
0.183354
0.0959731
0.135699
0.111421
-0.189062
-0.0669875
-0.165093
-0.0714699
-0.136416
-0.0857173
-0.106572
-0.0913751
-0.0753864
-0.0963193
-0.0430144
-0.100073
-0.0110596
-0.0991089
0.0188114
-0.0931134
0.0462451
-0.0851004
0.0711002
-0.0760378
0.093069
-0.0661653
0.112317
-0.0571745
0.129203
-0.0493373
0.143999
-0.0423744
0.157017
-0.0368884
0.168597
-0.0323709
0.179003
-0.0288916
0.188504
-0.0262239
0.197307
-0.0243314
0.205577
-0.0228393
0.213499
-0.0218631
0.221085
-0.0209608
0.228244
-0.0198224
0.234671
-0.0172906
0.24008
-0.0140076
0.244573
-0.0113119
0.248208
-0.00866741
0.251017
-0.00622389
0.253065
-0.00390601
0.254345
-0.00167283
0.254929
0.000483105
0.254811
0.00256816
0.254012
0.00463339
0.252461
0.00675089
0.250055
0.00916594
0.24641
0.0126325
0.241107
0.0176943
0.230444
0.0363976
0.210553
0.0630604
-0.203523
0.226262
-0.0855821
0.249065
-0.0887363
0.274137
-0.0906082
0.297019
-0.082826
0.319195
-0.0796416
0.340448
-0.0731014
0.359955
-0.0645794
0.377535
-0.0573427
0.393398
-0.048553
0.407321
-0.0409428
0.419419
-0.0337495
0.42969
-0.0266814
0.438164
-0.0201431
0.444875
-0.014234
0.450146
-0.00821076
0.453614
-0.00253186
0.455419
0.00356804
0.455317
0.00933275
0.453628
0.0157353
0.450229
0.0217839
0.445265
0.0285075
0.438987
0.0342728
0.431525
0.0396617
0.423388
0.0425035
0.415009
0.0419377
0.406446
0.0414915
0.397329
0.042553
0.387508
0.0437147
0.376801
0.0453985
0.365028
0.0473983
0.35218
0.0494935
0.338241
0.0517398
0.32321
0.0543612
0.30696
0.0577353
0.289237
0.062681
0.269094
0.0716181
0.245277
0.0866223
0.210973
0.13028
0.162528
0.159886
-0.181063
-0.0894473
-0.156976
-0.095557
-0.127752
-0.114941
-0.0977505
-0.121376
-0.0664737
-0.127596
-0.0339716
-0.132575
-0.0020703
-0.13101
0.0274464
-0.12263
0.0543992
-0.112053
0.0788726
-0.100511
0.100527
-0.0878199
0.119607
-0.0762539
0.136521
-0.0662517
0.151509
-0.0573622
0.164888
-0.0502675
0.176883
-0.0443661
0.187786
-0.0397947
0.197776
-0.0362136
0.207083
-0.0336385
0.215847
-0.0316028
0.224179
-0.0301952
0.232145
-0.0289269
0.239684
-0.027362
0.246477
-0.0240835
0.252281
-0.0198118
0.257157
-0.016188
0.26115
-0.0126602
0.264308
-0.00938206
0.266664
-0.00626209
0.268275
-0.00328408
0.26917
-0.00041156
0.269373
0.00236476
0.268883
0.00512257
0.267686
0.00794748
0.265663
0.0111892
0.262434
0.0158608
0.257413
0.0227142
0.247264
0.0465455
0.227698
0.082626
-0.199511
0.223072
-0.109143
0.246766
-0.112429
0.273257
-0.1171
0.296913
-0.106482
0.320117
-0.102846
0.342477
-0.0954608
0.362888
-0.0849912
0.381458
-0.0759124
0.398483
-0.0655777
0.413308
-0.0557679
0.426325
-0.0467663
0.43747
-0.037827
0.44702
-0.0296928
0.454641
-0.0218552
0.460515
-0.0140841
0.464638
-0.00665538
0.467164
0.0010419
0.468134
0.00836317
0.467302
0.0165671
0.464931
0.0241549
0.460875
0.0325637
0.455272
0.0398759
0.448357
0.0465766
0.440527
0.0503335
0.432357
0.0501076
0.424055
0.0497936
0.415477
0.0511311
0.406561
0.0526308
0.397167
0.0547925
0.387128
0.0574373
0.376196
0.0604254
0.364141
0.0637947
0.350744
0.0677578
0.335713
0.0727669
0.318631
0.0797632
0.298616
0.091633
0.274231
0.111008
0.23922
0.165291
0.190653
0.208467
-0.176009
-0.112949
-0.151216
-0.12035
-0.120753
-0.145404
-0.0899216
-0.152208
-0.0579325
-0.159585
-0.0247994
-0.165708
0.00752269
-0.163332
0.0370943
-0.152202
0.0638937
-0.138852
0.0881323
-0.12475
0.109516
-0.109203
0.128387
-0.0951254
0.14524
-0.0831046
0.160284
-0.0724061
0.173833
-0.0638164
0.18615
-0.0566827
0.19741
-0.0510555
0.207799
-0.0466022
0.21751
-0.0433492
0.226681
-0.0407738
0.235405
-0.0389196
0.243723
-0.0372449
0.2516
-0.0352382
0.258758
-0.0312422
0.264938
-0.0259921
0.270172
-0.0214221
0.274493
-0.0169808
0.277952
-0.0128414
0.280578
-0.00888837
0.282404
-0.00511014
0.283471
-0.00147788
0.283831
0.00200414
0.28348
0.00547391
0.282379
0.00904835
0.280477
0.013091
0.277385
0.0189532
0.2725
0.0275983
0.262904
0.0561412
0.243988
0.101542
-0.196292
0.22087
-0.133722
0.245888
-0.137447
0.273757
-0.144969
0.298618
-0.131343
0.322838
-0.127066
0.346565
-0.119187
0.36794
-0.106366
0.387784
-0.0957562
0.405786
-0.0835801
0.42183
-0.0718119
0.436145
-0.0610813
0.448542
-0.0502239
0.459242
-0.0403921
0.468219
-0.0308328
0.475336
-0.0212003
0.480902
-0.0122221
0.484544
-0.00259981
0.486353
0.00655424
0.486438
0.0164825
0.484621
0.0259716
0.480953
0.0362315
0.475657
0.0451728
0.468883
0.0533506
0.461052
0.0581644
0.452678
0.058481
0.444026
0.0584463
0.435049
0.0601079
0.425763
0.0619164
0.416174
0.0643819
0.406211
0.0674005
0.395804
0.0708329
0.384723
0.0748765
0.372697
0.079784
0.359296
0.0861685
0.343901
0.0951594
0.325321
0.110214
0.301929
0.134403
0.267537
0.199686
0.21952
0.256497
-0.171821
-0.137419
-0.146209
-0.145962
-0.114434
-0.177179
-0.0824599
-0.184182
-0.0494683
-0.192577
-0.0154035
-0.199773
0.0176384
-0.196374
0.0475659
-0.182129
0.0744686
-0.165755
0.098647
-0.148928
0.119865
-0.130421
0.13853
-0.113791
0.155241
-0.0998152
0.170253
-0.0874178
0.183871
-0.0774342
0.196352
-0.0691638
0.207857
-0.0625609
0.218579
-0.0573244
0.228644
-0.0534143
0.23818
-0.0503097
0.247278
-0.0480176
0.255959
-0.0459258
0.264169
-0.0434479
0.271722
-0.0387951
0.278289
-0.0325594
0.283862
-0.0269954
0.288526
-0.0216447
0.292275
-0.0165912
0.295159
-0.0117717
0.297205
-0.00715676
0.298453
-0.00272624
0.298929
0.00152767
0.29864
0.0057629
0.297602
0.0100864
0.295665
0.0150268
0.29254
0.0220776
0.28754
0.0325985
0.278233
0.0654468
0.26001
0.119763
-0.194351
0.220259
-0.15963
0.246315
-0.163503
0.275755
-0.174408
0.301893
-0.157481
0.327371
-0.152544
0.352175
-0.143991
0.374721
-0.128913
0.395415
-0.11645
0.414467
-0.102631
0.431449
-0.0887947
0.446595
-0.0762273
0.460044
-0.0636722
0.471659
-0.0520079
0.481506
-0.0406789
0.489643
-0.0293382
0.495894
-0.0184721
0.500409
-0.00711548
0.503091
0.00387263
0.503962
0.0156116
0.502958
0.0269755
0.500119
0.0390707
0.495507
0.0497848
0.489446
0.0594113
0.48212
0.0654901
0.474038
0.0665635
0.465436
0.0670486
0.456319
0.0692241
0.446722
0.0715133
0.43673
0.0743747
0.426309
0.0778213
0.415468
0.0816733
0.404166
0.0861784
0.392274
0.0916763
0.379459
0.0989835
0.365213
0.109405
0.34833
0.127097
0.326965
0.155768
0.294859
0.231792
0.248405
0.30296
-0.168673
-0.163097
-0.141956
-0.17268
-0.108731
-0.210404
-0.0754467
-0.217466
-0.0412529
-0.22677
-0.00594365
-0.235082
0.0280769
-0.230395
0.0586679
-0.21272
0.0859241
-0.193011
0.110264
-0.173268
0.13142
-0.151577
0.149945
-0.132316
0.166516
-0.116386
0.181429
-0.102331
0.195021
-0.0910258
0.207575
-0.0817181
0.219261
-0.0742468
0.230219
-0.0682828
0.240583
-0.0637778
0.250444
-0.0601704
0.259872
-0.0574458
0.268881
-0.0549351
0.277447
-0.0520143
0.285325
-0.0466726
0.292284
-0.039519
0.298248
-0.0329592
0.303236
-0.0266333
0.3073
-0.0206543
0.310439
-0.0149111
0.312716
-0.00943432
0.314132
-0.00414186
0.314744
0.000916041
0.314558
0.00594819
0.313524
0.0111207
0.311588
0.0169632
0.308369
0.0252958
0.303184
0.0377843
0.293957
0.0746731
0.276349
0.137371
-0.19313
0.220373
-0.186873
0.247863
-0.190993
0.278986
-0.205531
0.306325
-0.18482
0.333093
-0.179312
0.359147
-0.170045
0.382711
-0.152477
0.404616
-0.138355
0.42448
-0.122495
0.442394
-0.106709
0.458586
-0.0924197
0.472893
-0.0779783
0.485386
-0.0645016
0.496184
-0.051477
0.505219
-0.0383728
0.512445
-0.0256979
0.517889
-0.0125593
0.521478
0.000283158
0.523127
0.0139631
0.522837
0.0272654
0.520693
0.0412149
0.516696
0.0537819
0.511086
0.065021
0.504217
0.0723593
0.496413
0.0743677
0.487932
0.0755296
0.478831
0.0783255
0.469112
0.0812321
0.458821
0.0846661
0.44802
0.0886228
0.436659
0.0930344
0.424786
0.0980513
0.41231
0.104153
0.399133
0.112161
0.384864
0.123675
0.368658
0.143305
0.348995
0.175432
0.320072
0.260717
0.276374
0.346669
-0.166221
-0.190007
-0.138344
-0.200556
-0.103404
-0.245344
-0.068598
-0.252272
-0.0329737
-0.262395
0.00370708
-0.271763
0.0389505
-0.265638
0.0704174
-0.244187
0.0982173
-0.220811
0.122857
-0.197908
0.144101
-0.17282
0.162554
-0.150769
0.179005
-0.132837
0.193799
-0.117124
0.207315
-0.104542
0.219898
-0.0943007
0.231662
-0.0860113
0.242789
-0.0794091
0.253373
-0.0743626
0.263508
-0.0703053
0.273223
-0.0671602
0.28256
-0.064272
0.291454
-0.0609089
0.2997
-0.054918
0.307028
-0.0468479
0.313358
-0.0392892
0.318701
-0.031976
0.323084
-0.025038
0.326502
-0.0183289
0.328997
-0.0119297
0.330616
-0.00576055
0.33136
0.000171127
0.331263
0.00604574
0.330277
0.0121058
0.328292
0.0189476
0.324982
0.0286053
0.319626
0.0431403
0.310396
0.083901
0.293393
0.154373
-0.192745
0.221356
-0.215484
0.250294
-0.219931
0.283116
-0.238353
0.311846
-0.21355
0.340084
-0.207549
0.367496
-0.197457
0.392281
-0.177262
0.415071
-0.161145
0.436048
-0.143472
0.454796
-0.125457
0.471696
-0.109319
0.486818
-0.0931002
0.500174
-0.077858
0.511774
-0.0630771
0.521619
-0.0482175
0.52973
-0.0338087
0.535972
-0.0188016
0.5403
-0.00404506
0.542702
0.0115614
0.54313
0.0268373
0.541664
0.0426811
0.538343
0.057103
0.533335
0.0700292
0.526952
0.0787418
0.519526
0.0817936
0.511263
0.0837929
0.502215
0.0873732
0.492456
0.0909916
0.482046
0.0950765
0.470975
0.0996932
0.459254
0.104755
0.446885
0.110421
0.433812
0.117226
0.419919
0.126054
0.404985
0.138609
0.388372
0.159918
0.36919
0.194615
0.343053
0.286854
0.302557
0.387172
-0.164345
-0.218406
-0.135114
-0.229787
-0.0983977
-0.282061
-0.0620295
-0.288641
-0.0247506
-0.299674
0.0135103
-0.310023
0.050222
-0.30235
0.082743
-0.276708
0.11127
-0.249338
0.136385
-0.223023
0.157834
-0.194269
0.176321
-0.169257
0.192705
-0.149221
0.20739
-0.13181
0.220813
-0.117964
0.233332
-0.10682
0.245135
-0.0978146
0.256356
-0.0906294
0.267099
-0.0851059
0.277454
-0.0806604
0.287454
-0.0771602
0.297063
-0.0738809
0.306265
-0.0701109
0.314863
-0.0635158
0.322581
-0.0545665
0.329264
-0.0459722
0.334963
-0.0376752
0.339649
-0.0297235
0.343367
-0.0220474
0.346116
-0.0146781
0.347923
-0.00756811
0.348826
-0.000732011
0.348814
0.00605804
0.347872
0.0130475
0.345886
0.0209337
0.342501
0.0319904
0.336957
0.0486851
0.327744
0.0931133
0.311338
0.170779
-0.192797
0.223022
-0.245709
0.253509
-0.250418
0.288226
-0.27307
0.318414
-0.243738
0.34794
-0.237076
0.376827
-0.226344
0.402784
-0.203219
0.426714
-0.185075
0.448677
-0.165435
0.468303
-0.145084
0.486058
-0.127074
0.502055
-0.109097
0.516117
-0.0919193
0.528433
-0.0753937
0.539139
-0.0589232
0.547953
-0.0426229
0.554971
-0.0258189
0.560051
-0.00912551
0.563248
0.00836417
0.564462
0.025624
0.563608
0.0435349
0.560936
0.0597749
0.556507
0.0744584
0.550629
0.0846204
0.543556
0.0888663
0.535463
0.0918863
0.526523
0.0963132
0.516781
0.100733
0.506232
0.105625
0.494984
0.110942
0.482986
0.116753
0.470214
0.123193
0.456628
0.130812
0.442107
0.140576
0.426423
0.154294
0.408958
0.177383
0.389179
0.214395
0.364539
0.311497
0.326827
0.424892
-0.163026
-0.248177
-0.132329
-0.260485
-0.0936502
-0.32074
-0.0554216
-0.326869
-0.0164586
-0.338637
0.023641
-0.350123
0.0618873
-0.340596
0.0956518
-0.310472
0.125077
-0.278763
0.150836
-0.248781
0.172613
-0.216047
0.191206
-0.187849
0.207589
-0.165604
0.222191
-0.146412
0.23551
-0.131284
0.247959
-0.119269
0.259732
-0.109587
0.270984
-0.101882
0.281856
-0.0959776
0.29238
-0.0911841
0.302565
-0.0873457
0.312452
-0.0837682
0.321961
-0.079619
0.330889
-0.0724444
0.338956
-0.0626337
0.346023
-0.053039
0.352054
-0.0437067
0.357084
-0.0347529
0.361086
-0.0260497
0.364087
-0.017679
0.36612
-0.00960184
0.367167
-0.0017788
0.367274
0.00595013
0.366389
0.0139324
0.364383
0.0229388
0.36091
0.0354637
0.355244
0.0543501
0.34607
0.102286
0.330237
0.186612
-0.193466
0.225262
-0.277505
0.257328
-0.282484
0.293975
-0.309716
0.325845
-0.275608
0.356989
-0.268219
0.387349
-0.256704
0.414452
-0.230322
0.439612
-0.210235
0.462611
-0.188434
0.483179
-0.165652
0.501724
-0.145619
0.518355
-0.125728
0.533214
-0.106778
0.546373
-0.0885526
0.557666
-0.0702163
0.567253
-0.0522104
0.574988
-0.0335536
0.580854
-0.0149912
0.584709
0.00450922
0.586589
0.0237432
0.586452
0.0436722
0.584357
0.0618701
0.580506
0.0783095
0.575136
0.0899899
0.568463
0.0955392
0.560675
0.0996751
0.551855
0.105133
0.542085
0.110504
0.531489
0.116221
0.520025
0.122405
0.507757
0.129021
0.494657
0.136293
0.480641
0.144828
0.465572
0.155645
0.449192
0.170675
0.430924
0.19565
0.410098
0.235221
0.385788
0.335808
0.349929
0.460755
-0.162019
-0.279624
-0.129814
-0.29269
-0.0890596
-0.361494
-0.0488985
-0.36703
-0.00796971
-0.379565
0.0339995
-0.392092
0.0740125
-0.380609
0.109171
-0.345631
0.139666
-0.309258
0.166143
-0.275258
0.18839
-0.238294
0.2072
-0.206658
0.223657
-0.182062
0.238209
-0.160963
0.251437
-0.144512
0.263792
-0.131623
0.275505
-0.121301
0.286766
-0.113142
0.29767
-0.106882
0.308309
-0.101823
0.318701
-0.0977377
0.328813
-0.0938803
0.338578
-0.0893848
0.347837
-0.081703
0.356256
-0.0710523
0.363675
-0.0604581
0.370073
-0.0501056
0.375425
-0.0401046
0.379743
-0.0303675
0.383005
-0.0209415
0.385239
-0.0118351
0.386479
-0.0030197
0.386694
0.00573525
0.385874
0.0147532
0.383858
0.0249544
0.380334
0.038988
0.374531
0.0601528
0.365414
0.111404
0.350213
0.201813
-0.194451
0.228047
-0.311101
0.261873
-0.31631
0.300559
-0.348402
0.334032
-0.309081
0.366789
-0.300976
0.398735
-0.288649
0.427346
-0.258934
0.453641
-0.23653
0.477714
-0.212507
0.499186
-0.187124
0.518629
-0.165062
0.536123
-0.143223
0.551597
-0.122252
0.565376
-0.102332
0.57744
-0.0822797
0.587711
-0.0624817
0.596102
-0.0419447
0.602598
-0.0214869
0.60713
-2.29732e-05
0.609698
0.0211754
0.610234
0.0431366
0.608799
0.0633048
0.605529
0.08158
0.600656
0.0948631
0.594371
0.101824
0.586856
0.107189
0.578189
0.1138
0.568492
0.120201
0.557804
0.12691
0.546195
0.134014
0.533668
0.141548
0.520212
0.149749
0.505797
0.159243
0.490218
0.171224
0.473225
0.187669
0.454255
0.214621
0.432409
0.257068
0.407684
0.360535
0.372943
0.495502
-0.161366
-0.312708
-0.127431
-0.326624
-0.0845427
-0.404383
-0.0422892
-0.409284
0.000684795
-0.422539
0.0447062
-0.436114
0.0866633
-0.422566
0.123322
-0.382289
0.154992
-0.340929
0.182375
-0.302641
0.205201
-0.26112
0.224327
-0.225784
0.240891
-0.198626
0.255456
-0.175528
0.268615
-0.157671
0.280881
-0.143889
0.292504
-0.132924
0.303718
-0.124356
0.314653
-0.117817
0.325358
-0.112528
0.335873
-0.108252
0.346168
-0.104176
0.35621
-0.0994264
0.365769
-0.0912627
0.374527
-0.0798102
0.382299
-0.0682301
0.389037
-0.0568432
0.394735
-0.0458035
0.399337
-0.0349688
0.402882
-0.024487
0.405351
-0.0143042
0.40676
-0.00442883
0.407119
0.00537569
0.40635
0.0155223
0.40435
0.026954
0.400764
0.0425734
0.394854
0.0660624
0.385857
0.120399
0.371307
0.216362
-0.195933
0.231239
-0.346407
0.266926
-0.351998
0.307771
-0.389247
0.343099
-0.344409
0.37761
-0.335487
0.411197
-0.322236
0.441229
-0.288965
0.46886
-0.264161
0.493995
-0.237642
0.516454
-0.209582
0.536733
-0.185341
0.554964
-0.161454
0.571257
-0.138545
0.58574
-0.116814
0.598417
-0.0949573
0.609281
-0.0733458
0.618341
-0.0510038
0.625521
-0.0286674
0.630711
-0.00521233
0.633846
0.01804
0.635008
0.0419747
0.634153
0.0641597
0.631445
0.0842882
0.627118
0.0991904
0.621324
0.107619
0.614106
0.114407
0.605644
0.122262
0.596001
0.129844
0.585268
0.137642
0.573523
0.14576
0.560769
0.154302
0.546985
0.163533
0.532126
0.174103
0.516036
0.187313
0.498452
0.205253
0.478832
0.23424
0.456177
0.279723
0.430798
0.385915
0.396728
0.529575
-0.160928
-0.347712
-0.125333
-0.36222
-0.0800764
-0.44964
-0.0356309
-0.453729
0.00958877
-0.467759
0.0558761
-0.482401
0.0998001
-0.46649
0.138164
-0.420653
0.171135
-0.3739
0.199526
-0.331032
0.223026
-0.28462
0.242555
-0.245312
0.259349
-0.21542
0.273975
-0.190154
0.287095
-0.170791
0.299279
-0.156073
0.310812
-0.144456
0.321953
-0.135497
0.332851
-0.128715
0.343596
-0.123272
0.354198
-0.118854
0.364663
-0.114641
0.374915
-0.109678
0.384768
-0.101116
0.393842
-0.0888843
0.401953
-0.076341
0.409034
-0.063924
0.415041
-0.0518111
0.419967
-0.0398944
0.42379
-0.0283099
0.426504
-0.0170185
0.428118
-0.0060431
0.428607
0.00488663
0.427928
0.016202
0.425932
0.02895
0.422325
0.0461806
0.416335
0.0720521
0.407424
0.12931
0.393577
0.230209
-0.197655
0.234907
-0.383659
0.27256
-0.389651
0.315705
-0.432392
0.352924
-0.381628
0.389218
-0.371781
0.424565
-0.357583
0.456145
-0.320546
0.485092
-0.293108
0.511461
-0.264012
0.534917
-0.233038
0.556162
-0.206586
0.57518
-0.180471
0.592183
-0.155548
0.60734
-0.131971
0.620559
-0.108177
0.632103
-0.0848896
0.641781
-0.0606817
0.649551
-0.0364371
0.655388
-0.01105
0.659185
0.0142439
0.660925
0.0402347
0.660678
0.0644062
0.658543
0.0864234
0.65472
0.103014
0.649344
0.112995
0.642454
0.121297
0.634227
0.130489
0.624707
0.139364
0.613964
0.148385
0.602094
0.15763
0.589106
0.16729
0.575011
0.177628
0.559716
0.189398
0.543138
0.203892
0.524959
0.223432
0.504697
0.254503
0.48129
0.303132
0.455324
0.411883
0.421764
0.56314
-0.16087
-0.384497
-0.12323
-0.39986
-0.0755935
-0.497276
-0.0287708
-0.500552
0.0187625
-0.515292
0.0673826
-0.531021
0.113572
-0.512679
0.153723
-0.460803
0.188167
-0.408345
0.217667
-0.360531
0.241952
-0.308906
0.261958
-0.265318
0.279033
-0.232495
0.293768
-0.204889
0.306878
-0.183901
0.319008
-0.168202
0.330458
-0.155907
0.341497
-0.146536
0.352342
-0.13956
0.363088
-0.134018
0.373749
-0.129516
0.384327
-0.125219
0.394784
-0.120135
0.404892
-0.111224
0.414262
-0.0982552
0.422695
-0.0847733
0.430107
-0.0713369
0.436456
-0.0581596
0.441693
-0.045132
0.445799
-0.0324161
0.448756
-0.0199752
0.450561
-0.00784858
0.451207
0.00424036
0.450618
0.0167913
0.448651
0.0309158
0.445017
0.0498141
0.438983
0.0780862
0.430244
0.138048
0.417084
0.243368
-0.19969
0.239049
-0.423018
0.278725
-0.429327
0.324284
-0.477951
0.363459
-0.420803
0.401686
-0.410008
0.438989
-0.394885
0.472097
-0.353655
0.50249
-0.323501
0.530219
-0.291741
0.554778
-0.257597
0.576912
-0.22872
0.596779
-0.200338
0.614414
-0.173184
0.630248
-0.147804
0.64422
-0.122149
0.656329
-0.0969987
0.666607
-0.0709597
0.674945
-0.0447755
0.681269
-0.0173734
0.685632
0.00988035
0.687983
0.0378839
0.688256
0.0641331
0.686674
0.0880052
0.683373
0.106315
0.678465
0.117903
0.671979
0.127783
0.663963
0.138506
0.654581
0.148746
0.643897
0.159069
0.631935
0.169591
0.618757
0.180468
0.604341
0.192044
0.588677
0.205062
0.571586
0.220982
0.55279
0.242228
0.531878
0.275414
0.507827
0.327182
0.481294
0.438416
0.448268
0.596168
-0.160902
-0.423285
-0.121383
-0.439378
-0.0710847
-0.547575
-0.0217775
-0.549859
0.0282476
-0.565317
0.0794365
-0.58221
0.127918
-0.561161
0.170051
-0.502936
0.20602
-0.444314
0.236785
-0.391296
0.261929
-0.33405
0.282539
-0.285928
0.299972
-0.249928
0.314882
-0.219799
0.328045
-0.197064
0.340121
-0.180278
0.351479
-0.167265
0.362443
-0.1575
0.37321
-0.150327
0.383911
-0.144719
0.394593
-0.140198
0.405277
-0.135902
0.415898
-0.130757
0.426232
-0.121558
0.435898
-0.10792
0.444631
-0.0935071
0.452363
-0.0790683
0.45902
-0.0648166
0.464568
-0.0506805
0.468949
-0.0367964
0.472166
-0.0231929
0.474199
-0.00988127
0.474988
0.00345161
0.474515
0.0172641
0.472597
0.032834
0.468954
0.0534569
0.462904
0.0841371
0.454308
0.146643
0.441891
0.255785
-0.202091
0.24361
-0.464537
0.285416
-0.471133
0.333489
-0.526024
0.374732
-0.462046
0.415079
-0.450355
0.454337
-0.434144
0.489153
-0.38847
0.521105
-0.355453
0.55013
-0.320766
0.575787
-0.283254
0.598916
-0.251849
0.61966
-0.221083
0.638169
-0.191692
0.654632
-0.164268
0.669191
-0.136708
0.681882
-0.10969
0.692709
-0.0817863
0.701602
-0.0536684
0.70857
-0.0243414
0.713451
0.00499981
0.716294
0.0350405
0.717151
0.0632765
0.716065
0.0890908
0.713259
0.109121
0.708788
0.122375
0.702673
0.133898
0.694963
0.146215
0.68575
0.157959
0.675106
0.169713
0.663086
0.181612
0.649749
0.193805
0.635073
0.20672
0.618997
0.221138
0.601415
0.238565
0.582047
0.261596
0.560509
0.296953
0.535794
0.351898
0.508765
0.465448
0.476291
0.628645
-0.161137
-0.464238
-0.119472
-0.481044
-0.0664708
-0.600576
-0.0145334
-0.601796
0.0381374
-0.617988
0.0920146
-0.636087
0.142996
-0.612142
0.187203
-0.547143
0.224874
-0.481985
0.256965
-0.423386
0.283104
-0.360189
0.30436
-0.307184
0.32221
-0.267777
0.337359
-0.234949
0.350604
-0.210309
0.36268
-0.192354
0.373963
-0.178548
0.38483
-0.168367
0.39551
-0.161007
0.406161
-0.15537
0.416832
-0.150869
0.427562
-0.146632
0.438325
-0.141519
0.44889
-0.132124
0.458801
-0.117831
0.467813
-0.102519
0.475846
-0.0871013
0.482813
-0.0717839
0.488668
-0.0565348
0.493348
-0.0414765
0.496822
-0.0266672
0.499052
-0.0121121
0.500035
0.00246897
0.499668
0.017631
0.497813
0.0346882
0.494186
0.0570833
0.488138
0.090185
0.479749
0.155031
0.468104
0.26743
-0.204703
0.248442
-0.508276
0.292578
-0.51527
0.343334
-0.576779
0.386812
-0.505524
0.429321
-0.492864
0.470615
-0.475437
0.507288
-0.425144
0.540852
-0.389017
0.571259
-0.351173
0.598149
-0.310144
0.622413
-0.276113
0.644014
-0.242683
0.663288
-0.210966
0.680481
-0.181461
0.695638
-0.151865
0.708927
-0.122979
0.720292
-0.0931505
0.729746
-0.0631233
0.737179
-0.0317742
0.742615
-0.000435409
0.745961
0.0316941
0.747284
0.0619536
0.746728
0.0896468
0.744396
0.111453
0.740403
0.126367
0.734657
0.139644
0.727236
0.153637
0.718219
0.166976
0.707648
0.180285
0.695619
0.193641
0.682139
0.207285
0.667216
0.221643
0.650788
0.237566
0.632735
0.256618
0.612819
0.281511
0.590613
0.319158
0.565302
0.377208
0.53782
0.49293
0.505868
0.660598
-0.161527
-0.507415
-0.117651
-0.524919
-0.0617807
-0.656446
-0.00700894
-0.656568
0.0484368
-0.673434
0.105123
-0.692773
0.158811
-0.665829
0.205205
-0.593537
0.244711
-0.521491
0.278242
-0.456918
0.305431
-0.387378
0.327426
-0.32918
0.345793
-0.286143
0.361229
-0.250385
0.374608
-0.223688
0.38672
-0.204467
0.397962
-0.189789
0.408744
-0.179149
0.41933
-0.171594
0.429897
-0.165937
0.440547
-0.161519
0.451306
-0.157392
0.462178
-0.152391
0.472913
-0.142859
0.48305
-0.127968
0.492339
-0.111809
0.500654
-0.0954157
0.50793
-0.0790603
0.51407
-0.0626748
0.519036
-0.0464428
0.522769
-0.0304001
0.525245
-0.0145876
0.526393
0.00132031
0.526147
0.0178775
0.524378
0.0364574
0.520778
0.0606832
0.514796
0.0961678
0.506605
0.163222
0.495712
0.278323
-0.20764
0.253781
-0.554416
0.300358
-0.561847
0.353801
-0.630222
0.399745
-0.551467
0.444422
-0.537542
0.487988
-0.519002
0.52651
-0.463666
0.56179
-0.424297
0.593739
-0.383122
0.621939
-0.338344
0.647187
-0.301362
0.669824
-0.26532
0.689863
-0.231005
0.707772
-0.19937
0.723661
-0.167754
0.737489
-0.136807
0.749428
-0.10509
0.759384
-0.0730785
0.767365
-0.039756
0.773252
-0.00632171
0.777068
0.0278783
0.778911
0.0601107
0.77877
0.089788
0.7769
0.113323
0.773318
0.129949
0.767954
0.145009
0.760855
0.160735
0.75206
0.175772
0.741643
0.190702
0.729605
0.205678
0.716015
0.220875
0.700861
0.236797
0.684095
0.254332
0.665614
0.2751
0.645118
0.302008
0.622334
0.341942
0.596425
0.403118
0.568473
0.520884
0.537066
0.692007
-0.162122
-0.552933
-0.115864
-0.571177
-0.0569117
-0.715399
0.000768182
-0.714248
0.0592078
-0.731874
0.118905
-0.75247
0.175334
-0.722258
0.224155
-0.642359
0.265569
-0.562905
0.300693
-0.492041
0.329044
-0.415729
0.351866
-0.352002
0.370792
-0.305069
0.386577
-0.26617
0.400146
-0.237257
0.412305
-0.216626
0.423544
-0.201028
0.434239
-0.189844
0.444731
-0.182085
0.455213
-0.176419
0.46581
-0.172116
0.476576
-0.168158
0.487537
-0.163353
0.498433
-0.153754
0.508781
-0.138317
0.518298
-0.121326
0.526872
-0.103989
0.534415
-0.0866039
0.540855
-0.0691151
0.546091
-0.0516788
0.550098
-0.0344065
0.552787
-0.0172768
0.554139
-3.25574e-05
0.554054
0.0179622
0.55235
0.0381614
0.548843
0.0641899
0.542919
0.102091
0.535003
0.171138
0.524877
0.288448
-0.210809
0.259478
-0.603086
0.308527
-0.610895
0.365037
-0.686732
0.413292
-0.599723
0.460493
-0.584742
0.506324
-0.564833
0.546955
-0.504297
0.583966
-0.461308
0.617499
-0.416654
0.64703
-0.367876
0.673557
-0.327889
0.697124
-0.288887
0.718103
-0.251983
0.736766
-0.218033
0.753283
-0.184271
0.767729
-0.151253
0.780185
-0.117545
0.790621
-0.0835145
0.799033
-0.0481678
0.805401
-0.01269
0.809709
0.0235706
0.811922
0.0578973
0.812228
0.0894825
0.810809
0.114742
0.807643
0.133115
0.802698
0.149954
0.795916
0.167516
0.787343
0.184345
0.77704
0.201004
0.765062
0.217657
0.751397
0.23454
0.736046
0.252147
0.718976
0.271403
0.700069
0.294005
0.679082
0.322995
0.655711
0.365312
0.629247
0.429582
0.600871
0.54926
0.569969
0.72291
-0.162822
-0.600919
-0.114061
-0.619938
-0.0518914
-0.777568
0.00885557
-0.774995
0.0704345
-0.793452
0.13332
-0.815356
0.192755
-0.781693
0.244052
-0.693657
0.287539
-0.606392
0.324318
-0.52882
0.353936
-0.445347
0.377671
-0.375738
0.397227
-0.324625
0.413435
-0.282377
0.427238
-0.25106
0.439509
-0.228896
0.450743
-0.212262
0.46139
-0.200492
0.47179
-0.192485
0.482204
-0.186832
0.492721
-0.182633
0.503488
-0.178925
0.514501
-0.174365
0.52553
-0.164784
0.536063
-0.14885
0.545779
-0.131042
0.554612
-0.112821
0.562416
-0.0944085
0.569106
-0.0758053
0.574642
-0.057214
0.578895
-0.0386601
0.581828
-0.0202095
0.583356
-0.00156028
0.583423
0.0178952
0.581857
0.0397273
0.578418
0.0676293
0.572634
0.107875
0.564968
0.178804
0.555625
0.297791
-0.214268
0.265556
-0.654373
0.317277
-0.662616
0.376839
-0.746294
0.427817
-0.650701
0.47746
-0.634386
0.525821
-0.613194
0.568469
-0.546945
0.607434
-0.500272
0.642664
-0.451884
0.673679
-0.398892
0.701382
-0.355592
0.726101
-0.313606
0.74796
-0.273842
0.767417
-0.237491
0.784576
-0.20143
0.799661
-0.166338
0.812625
-0.130509
0.823545
-0.094435
0.832461
-0.0570833
0.839237
-0.0194657
0.843929
0.0188787
0.846568
0.0552576
0.847273
0.0887779
0.846251
0.115763
0.8435
0.135867
0.838904
0.15455
0.832441
0.17398
0.824158
0.192628
0.814028
0.211134
0.802089
0.229597
0.788368
0.248261
0.772873
0.267642
0.755535
0.288742
0.736237
0.313303
0.71477
0.344463
0.690852
0.389231