/*--------------------------------*- C++ -*----------------------------------*\
  =========                 |
  \\      /  F ield         | OpenFOAM: The Open Source CFD Toolbox
   \\    /   O peration     | Website:  https://openfoam.org
    \\  /    A nd           | Version:  7
     \\/     M anipulation  |
\*---------------------------------------------------------------------------*/
FoamFile
{
    version     2.0;
    format      ascii;
    class       volVectorField;
    location    "150";
    object      U;
}
// * * * * * * * * * * * * * * * * * * * * * * * * * * * * * * * * * * * * * //

dimensions      [0 1 -1 0 0 0 0];

internalField   nonuniform List<vector> 
10720
(
(0.413222 28.1372 1.54691e-17)
(2.21029 30.4122 -1.43315e-17)
(4.45055 32.601 0)
(7.0167 34.287 -3.99888e-16)
(9.84621 35.5631 4.48009e-16)
(12.8727 36.3859 3.25232e-16)
(15.9396 36.6518 4.47487e-16)
(18.954 36.402 0)
(21.8377 35.6988 0)
(24.5129 34.581 0)
(26.951 33.1302 1.16351e-16)
(29.1393 31.4337 0)
(31.0533 29.5212 2.34929e-15)
(32.6827 27.4237 0)
(34.0153 25.1706 0)
(35.0632 22.8073 0)
(35.814 20.3526 -3.96562e-15)
(36.2711 17.8579 -5.93165e-15)
(36.4158 15.3476 5.27947e-15)
(36.259 12.8818 0)
(35.7834 10.4975 4.34424e-15)
(35.0258 8.26806 -8.51574e-15)
(34.0338 6.24586 4.24277e-15)
(32.9168 4.49471 -1.27272e-16)
(31.8731 3.06288 0)
(30.9877 1.89837 1.6843e-15)
(30.1649 0.913433 2.60674e-17)
(29.3063 0.0666845 -7.38296e-16)
(28.3749 -0.66468 -2.69572e-15)
(27.3667 -1.29546 -9.78785e-15)
(26.285 -1.83236 4.36288e-15)
(25.133 -2.27879 7.95505e-15)
(23.9086 -2.63581 6.86201e-15)
(22.6031 -2.90394 2.34492e-14)
(21.1696 -3.0789 -9.48245e-15)
(19.5707 -3.15872 -6.70728e-17)
(17.506 -3.0915 2.17159e-17)
(15.077 -2.86329 3.77782e-15)
(9.66449 -2.30672 1.38521e-14)
(-1.01598 25.7009 2.88825e-19)
(-2.1782 22.9487 -1.03453e-17)
(-3.00466 19.8451 4.98155e-17)
(-3.3609 16.2404 -1.456e-16)
(-3.09237 12.5099 -4.96769e-16)
(-2.15666 8.79109 8.81747e-16)
(-0.625746 5.36716 4.43383e-15)
(1.25994 2.51432 2.58289e-15)
(3.24833 0.135831 0)
(5.46559 -1.91442 0)
(7.73909 -3.44201 2.01149e-15)
(9.84792 -4.43022 7.37674e-16)
(11.722 -5.00135 -1.23261e-15)
(13.3645 -5.27926 1.01654e-15)
(14.7988 -5.36435 1.67903e-15)
(16.0577 -5.32204 1.08292e-15)
(17.1723 -5.20099 1.38127e-15)
(18.1745 -5.03064 9.16616e-16)
(19.0953 -4.83124 0)
(19.9572 -4.606 0)
(20.778 -4.35653 -1.26084e-15)
(21.5691 -4.0725 -5.77674e-17)
(22.3325 -3.7385 8.48241e-16)
(23.0377 -3.32357 -5.85886e-16)
(23.6185 -2.82236 2.37721e-17)
(24.0564 -2.27236 0)
(24.3772 -1.69989 9.35423e-17)
(24.5969 -1.12084 0)
(24.7223 -0.546551 0)
(24.7503 0.0116911 1.11897e-17)
(24.6603 0.545772 0)
(24.4663 1.04874 3.58017e-17)
(24.1873 1.51455 6.62906e-18)
(23.838 1.93776 -3.24412e-16)
(23.413 2.31458 4.44574e-16)
(22.9025 2.64579 -2.37618e-18)
(22.1811 2.9239 0)
(21.1835 3.11094 4.98006e-15)
(18.3597 3.25155 9.01387e-15)
(7.04011 24.4432 -6.34684e-18)
(8.94334 26.1826 -1.74233e-18)
(11.2612 27.7586 0)
(13.9257 29.0669 0)
(16.7907 30.0469 -1.31486e-16)
(19.8599 30.6382 -3.11622e-16)
(23.0161 30.7961 0)
(26.1249 30.5425 0)
(29.1305 29.8885 6.6321e-16)
(31.9443 28.8846 0)
(34.5116 27.5909 2.44307e-15)
(36.8036 26.056 0)
(38.8092 24.353 8.75196e-16)
(40.538 22.544 -8.62147e-16)
(41.9988 20.649 1.73741e-15)
(43.1591 18.6976 -3.47583e-15)
(44.018 16.7021 3.72129e-15)
(44.5648 14.6874 3.40603e-15)
(44.7996 12.6616 3.33623e-15)
(44.7041 10.6556 2.02788e-16)
(44.2786 8.69492 -3.48423e-15)
(43.5139 6.83396 3.30873e-15)
(42.4352 5.11393 -1.86631e-16)
(41.0778 3.59222 0)
(39.5501 2.32032 0)
(37.9995 1.24499 0)
(36.484 0.289291 1.40629e-16)
(34.9951 -0.556514 -3.14193e-17)
(33.5346 -1.29476 1.97638e-15)
(32.0975 -1.9318 3.74883e-17)
(30.6683 -2.47023 -2.96864e-17)
(29.2294 -2.91249 -8.67411e-17)
(27.762 -3.26081 4.72312e-15)
(26.2509 -3.51747 -7.92363e-15)
(24.6557 -3.68232 -4.29923e-17)
(22.9574 -3.75627 -9.15351e-15)
(20.898 -3.69874 0)
(18.6946 -3.5095 -1.09097e-15)
(13.3947 -2.75123 7.34536e-15)
(5.4308 22.5897 8.18437e-18)
(4.03341 20.5281 -4.17367e-17)
(2.80556 18.1137 -5.16476e-16)
(1.87193 15.3712 6.36284e-16)
(1.40887 12.3964 0)
(1.50219 9.32355 -1.35486e-15)
(2.17441 6.34956 -9.71426e-16)
(3.34322 3.68782 -7.38266e-15)
(4.84355 1.36598 2.29858e-15)
(6.5929 -0.552797 -1.74244e-15)
(8.46887 -1.9553 2.1981e-15)
(10.3135 -2.88929 -6.2656e-16)
(12.0424 -3.47009 0)
(13.623 -3.79517 -4.18067e-16)
(15.0466 -3.94746 5.31292e-17)
(16.3246 -3.98026 -9.31642e-16)
(17.4731 -3.93821 0)
(18.5153 -3.84646 0)
(19.4751 -3.72292 -9.62356e-17)
(20.3749 -3.56508 9.2486e-17)
(21.2302 -3.37103 -1.09141e-15)
(22.0532 -3.12415 -1.17517e-16)
(22.8457 -2.80442 5.15258e-17)
(23.5843 -2.375 5.68909e-16)
(24.2148 -1.84881 -3.9733e-16)
(24.7125 -1.29301 -2.90075e-16)
(25.0934 -0.736436 0)
(25.3704 -0.190184 0)
(25.5468 0.339318 0)
(25.6293 0.843243 8.58626e-18)
(25.6457 1.3141 0)
(25.5918 1.74895 0)
(25.4573 2.14673 2.81028e-17)
(25.2361 2.50651 1.30872e-16)
(24.9204 2.8301 -3.60105e-16)
(24.5192 3.12299 7.36023e-16)
(23.9309 3.38324 -2.35249e-15)
(23.3444 3.60527 -3.82113e-15)
(21.2469 3.64512 -6.08126e-15)
(8.36983 22.5079 -1.23096e-18)
(9.7544 24.0316 1.5269e-17)
(11.4347 25.5105 -1.27979e-17)
(13.3647 26.8692 -4.06716e-17)
(15.49 27.9904 -1.71751e-16)
(17.8111 28.8495 5.96819e-16)
(20.2537 29.406 -4.18134e-16)
(22.742 29.6232 -4.91539e-16)
(25.2212 29.4993 4.89393e-18)
(27.6335 29.046 -6.40757e-16)
(29.9267 28.2842 5.95926e-16)
(32.0692 27.2438 -1.54867e-15)
(34.0332 25.9563 -7.40524e-16)
(35.805 24.4496 0)
(37.3654 22.7592 -1.7747e-15)
(38.7291 20.9099 3.57005e-15)
(39.9024 18.9211 0)
(40.866 16.8365 -6.76671e-15)
(41.6105 14.6858 -3.38454e-15)
(42.1085 12.5214 3.94855e-16)
(42.3479 10.3811 -3.91263e-16)
(42.3074 8.33306 -1.77466e-16)
(41.9886 6.42633 -2.52212e-15)
(41.3991 4.72351 1.26733e-15)
(40.5895 3.26957 0)
(39.6363 2.00876 1.10733e-15)
(38.5604 0.872501 -1.30796e-16)
(37.3556 -0.139306 0)
(36.0392 -1.02344 1.73896e-15)
(34.6382 -1.78411 3.22773e-15)
(33.1733 -2.42405 -5.68997e-15)
(31.6579 -2.94716 -4.89685e-15)
(30.0948 -3.35841 -1.05152e-16)
(28.4798 -3.66243 -6.95339e-15)
(26.7785 -3.86142 -5.57164e-15)
(24.9724 -3.95488 7.98226e-15)
(22.8204 -3.90966 0)
(20.544 -3.68249 -8.51696e-16)
(15.6654 -2.99871 -1.11719e-14)
(7.23432 20.9008 -1.34218e-17)
(6.23624 19.1416 -5.21346e-17)
(5.3966 17.0688 2.0465e-16)
(4.71933 14.7437 0)
(4.35238 12.2464 3.91589e-16)
(4.34546 9.6438 0)
(4.72669 7.06461 2.77959e-15)
(5.47955 4.66886 1.64507e-15)
(6.55809 2.53579 1.51242e-15)
(7.90128 0.724233 0)
(9.3904 -0.714555 -2.22003e-15)
(10.9112 -1.79632 -4.75436e-16)
(12.3909 -2.57661 2.15285e-15)
(13.7892 -3.11294 0)
(15.0864 -3.45809 -1.00102e-15)
(16.2805 -3.65676 -3.02308e-16)
(17.3776 -3.7478 1.24601e-15)
(18.3908 -3.7581 6.4527e-16)
(19.3366 -3.70685 1.77151e-16)
(20.2319 -3.59993 -9.62355e-17)
(21.0891 -3.44022 9.95249e-16)
(21.9169 -3.21953 0)
(22.7154 -2.92453 0)
(23.4651 -2.53336 2.3514e-17)
(24.1221 -2.05932 0)
(24.6628 -1.55096 6.02229e-16)
(25.0977 -1.0277 -7.86016e-18)
(25.4381 -0.497343 -3.63075e-17)
(25.6877 0.032349 0)
(25.8482 0.551326 -1.79592e-17)
(25.9248 1.05222 2.49743e-17)
(25.9228 1.52852 0)
(25.8446 1.97423 -3.40925e-17)
(25.6901 2.38418 0)
(25.4474 2.75657 0)
(25.116 3.0922 3.89411e-17)
(24.5839 3.39044 -5.31969e-17)
(23.9745 3.61013 3.8189e-15)
(22.0986 3.6523 1.17734e-14)
(10.8927 20.6312 -1.0746e-17)
(12.1697 21.9315 -7.65173e-18)
(13.6988 23.1969 -4.53464e-18)
(15.4553 24.3529 -9.80839e-18)
(17.3907 25.3092 0)
(19.5114 26.0475 0)
(21.7605 26.5244 -6.9923e-16)
(24.0761 26.7054 8.3842e-16)
(26.4112 26.5838 0)
(28.7104 26.1623 -1.01803e-15)
(30.9218 25.4554 -1.2908e-15)
(33.0074 24.4864 -1.22047e-15)
(34.933 23.2851 1.45538e-15)
(36.6713 21.8842 1.37308e-15)
(38.2029 20.3172 0)
(39.5134 18.6179 2.18157e-15)
(40.5746 16.8288 7.55975e-16)
(41.3759 14.9829 6.09859e-15)
(41.9145 13.1065 3.69606e-16)
(42.1954 11.2281 -3.66455e-16)
(42.2263 9.37879 3.09886e-15)
(42.0223 7.60302 -5.07542e-16)
(41.6114 5.94135 2.76405e-15)
(41.0299 4.43819 1.15399e-15)
(40.3337 3.12517 -6.83268e-17)
(39.5799 1.96526 -1.00174e-15)
(38.7717 0.904178 7.39641e-18)
(37.8762 -0.0624593 -7.42101e-18)
(36.8742 -0.931051 -1.66648e-15)
(35.7592 -1.70202 -4.4113e-17)
(34.5284 -2.37154 2.78212e-15)
(33.1843 -2.93528 -4.73313e-15)
(31.7311 -3.39042 -3.82085e-15)
(30.1735 -3.73544 -2.03356e-18)
(28.4896 -3.96851 5.06874e-15)
(26.6701 -4.08382 0)
(24.4959 -4.05175 4.13953e-15)
(22.1521 -3.78286 7.36919e-16)
(17.5289 -3.14156 4.65597e-15)
(9.81733 19.2694 -2.59754e-17)
(8.85132 17.791 6.83784e-17)
(8.00226 16.0468 3.03021e-16)
(7.28947 14.0749 0)
(6.83922 11.9482 -3.48809e-16)
(6.68969 9.71043 0)
(6.86588 7.46102 -2.22524e-15)
(7.35304 5.32769 -1.00987e-16)
(8.12398 3.3802 1.10995e-15)
(9.13958 1.67359 9.86607e-16)
(10.314 0.258268 3.50407e-17)
(11.5658 -0.857646 1.66566e-15)
(12.8343 -1.70293 -1.08031e-15)
(14.0757 -2.31725 3.42766e-16)
(15.2624 -2.74058 1.16829e-15)
(16.3818 -3.01255 1.28503e-15)
(17.4307 -3.16752 -1.15064e-15)
(18.4129 -3.23266 5.70881e-18)
(19.338 -3.22775 0)
(20.2174 -3.16222 1.1929e-15)
(21.0604 -3.03938 5.82228e-17)
(21.8734 -2.85374 -8.93004e-16)
(22.6556 -2.59435 0)
(23.3904 -2.24434 2.23107e-17)
(24.0415 -1.81094 0)
(24.5858 -1.33277 -2.83766e-16)
(25.029 -0.832684 0)
(25.3814 -0.322475 3.40756e-17)
(25.6468 0.187759 -1.03751e-18)
(25.8277 0.687542 5.71859e-19)
(25.9284 1.16785 -2.26202e-17)
(25.9542 1.6212 -7.65156e-19)
(25.9083 2.04356 0)
(25.7926 2.43247 1.46319e-16)
(25.5976 2.78803 2.83322e-18)
(25.3225 3.1103 -7.46053e-16)
(24.8612 3.4002 4.79136e-15)
(24.3053 3.58911 1.15849e-17)
(22.6112 3.62186 0)
(12.466 19.1945 -1.52454e-17)
(13.5509 20.3457 -1.48241e-18)
(14.8563 21.4874 -7.48162e-18)
(16.3481 22.5558 1.49387e-16)
(17.9847 23.4683 -5.214e-17)
(19.7877 24.2193 -1.88576e-16)
(21.7102 24.7684 3.00876e-16)
(23.7045 25.0799 0)
(25.7404 25.1431 1.17719e-15)
(27.7716 24.9503 5.48951e-16)
(29.7571 24.5026 0)
(31.6632 23.8097 1.17234e-15)
(33.4563 22.8883 -6.1816e-16)
(35.1082 21.7575 1.71915e-15)
(36.5965 20.44 0)
(37.9006 18.9594 -2.85871e-15)
(39.0075 17.3334 2.72058e-15)
(39.9077 15.5822 -1.66978e-16)
(40.5864 13.7378 0)
(41.0278 11.8441 2.9454e-15)
(41.2222 9.947 -2.97326e-15)
(41.1685 8.10439 -1.51739e-16)
(40.8841 6.36939 -2.311e-15)
(40.4044 4.79388 -2.12169e-15)
(39.7894 3.41374 0)
(39.1059 2.20205 0)
(38.3793 1.10736 -2.29418e-16)
(37.5984 0.11642 -2.56919e-17)
(36.7543 -0.772446 1.58449e-15)
(35.8406 -1.56382 -4.20589e-17)
(34.8444 -2.25811 4.19975e-17)
(33.7488 -2.85293 4.43097e-15)
(32.5351 -3.34501 0)
(31.1877 -3.72997 1.23345e-14)
(29.6734 -4.00196 -4.24577e-17)
(27.9788 -4.14867 0)
(25.9018 -4.14067 -3.16102e-17)
(23.6013 -3.85131 0)
(19.1997 -3.22741 -3.95817e-15)
(11.5466 17.9953 2.50564e-17)
(10.7179 16.7058 -1.61165e-16)
(9.96878 15.1836 1.77263e-16)
(9.31203 13.4644 2.82398e-16)
(8.85926 11.6155 -1.11832e-15)
(8.63933 9.66081 -1.44493e-15)
(8.68278 7.67539 1.75295e-15)
(8.98658 5.76488 -1.90814e-15)
(9.53685 3.99466 -8.59242e-16)
(10.3075 2.4123 -7.64032e-16)
(11.2362 1.05864 1.47374e-15)
(12.2618 -0.0515729 -1.41541e-15)
(13.3365 -0.933601 -6.20022e-16)
(14.4207 -1.61289 6.03448e-16)
(15.4855 -2.11516 -1.3103e-15)
(16.5139 -2.4704 2.40246e-16)
(17.4972 -2.70517 0)
(18.4331 -2.84202 -9.10874e-16)
(19.3253 -2.89817 3.22076e-16)
(20.1801 -2.88391 -1.24872e-15)
(21.0037 -2.80328 0)
(21.7996 -2.65349 7.74062e-16)
(22.5658 -2.42682 6.07617e-16)
(23.2874 -2.11223 -4.59031e-16)
(23.9334 -1.7156 0)
(24.4811 -1.26908 -3.02418e-16)
(24.9321 -0.79641 0)
(25.2941 -0.309581 0)
(25.5707 0.181748 0)
(25.7639 0.667282 3.44723e-17)
(25.8777 1.13798 0)
(25.9171 1.58711 0)
(25.8854 2.00949 -1.24742e-16)
(25.7853 2.40086 -1.39052e-16)
(25.6087 2.75958 0)
(25.3567 3.08336 -7.82086e-16)
(24.9317 3.37256 6.32249e-17)
(24.4231 3.54432 0)
(22.9211 3.56486 -5.11697e-15)
(13.9483 17.9378 1.83822e-17)
(14.9302 18.9576 -1.31054e-17)
(16.1075 19.9756 0)
(17.4477 20.9323 8.30591e-18)
(18.9107 21.7547 -1.25203e-16)
(20.5266 22.4431 1.77721e-16)
(22.2546 22.9593 4.5112e-17)
(24.0561 23.2712 -7.51674e-16)
(25.9101 23.3658 -9.17471e-17)
(27.7782 23.2322 1.12525e-15)
(29.6249 22.8662 -4.01397e-16)
(31.4203 22.2712 9.05404e-16)
(33.131 21.457 4.53049e-16)
(34.7279 20.4373 3.28559e-16)
(36.1853 19.2306 0)
(37.4794 17.8582 -6.20395e-16)
(38.5892 16.3454 -1.36952e-15)
(39.4904 14.7296 -5.06982e-15)
(40.1654 13.0447 1.4954e-15)
(40.6048 11.322 -1.89852e-15)
(40.804 9.59602 -2.97384e-16)
(40.7668 7.90805 0)
(40.5092 6.30121 2.06872e-15)
(40.0624 4.81809 1.31779e-16)
(39.477 3.49129 -5.88479e-17)
(38.8105 2.3081 -8.19962e-16)
(38.0914 1.23108 1.89104e-16)
(37.3194 0.249743 3.95723e-16)
(36.4953 -0.634731 -1.48103e-15)
(35.6243 -1.4252 -7.91173e-17)
(34.7055 -2.12318 2.52227e-15)
(33.7312 -2.72796 4.09661e-15)
(32.6841 -3.23777 0)
(31.5404 -3.64868 -1.83948e-17)
(30.2506 -3.95346 -4.61169e-15)
(28.7815 -4.13444 0)
(26.9229 -4.15972 -7.32278e-15)
(24.8117 -3.87167 0)
(20.7037 -3.27655 3.58646e-15)
(13.1076 16.8792 -2.52169e-17)
(12.3462 15.7482 6.57315e-17)
(11.6439 14.41 0)
(11.0141 12.8951 0)
(10.5554 11.267 4.80196e-16)
(10.2879 9.53966 2.39377e-15)
(10.2397 7.77011 0)
(10.4148 6.0497 -1.39926e-15)
(10.8052 4.44075 -1.34302e-15)
(11.3902 2.98023 1.34994e-15)
(12.1248 1.7014 -5.43029e-17)
(12.9631 0.622228 5.88639e-16)
(13.8686 -0.264601 2.96143e-17)
(14.8083 -0.974727 1.55424e-15)
(15.7551 -1.52382 1.39369e-15)
(16.6911 -1.93336 -1.30758e-15)
(17.6047 -2.22352 1.83986e-16)
(18.4892 -2.41274 -3.41996e-16)
(19.3433 -2.51593 1.58239e-16)
(20.1692 -2.54317 9.18889e-16)
(20.9695 -2.49924 1.18828e-16)
(21.7451 -2.38333 -8.59094e-17)
(22.4928 -2.18991 -5.17792e-16)
(23.1988 -1.91156 0)
(23.8365 -1.55313 2.13609e-17)
(24.384 -1.14063 5.63694e-16)
(24.8392 -0.69682 -2.95148e-18)
(25.2078 -0.234124 2.92741e-18)
(25.4923 0.237305 0)
(25.6945 0.706552 -3.23799e-17)
(25.8179 1.16396 0)
(25.8668 1.60169 0)
(25.8446 2.01388 1.14675e-16)
(25.7538 2.39609 1.85106e-16)
(25.5866 2.74646 0)
(25.3444 3.06109 7.28184e-16)
(24.9359 3.33992 -4.46337e-15)
(24.4469 3.48833 2.08996e-17)
(23.0999 3.48611 4.68204e-15)
(15.1563 16.8691 -6.29883e-20)
(16.0405 17.7841 -1.27006e-17)
(17.1001 18.7048 -1.3409e-19)
(18.3012 19.5756 1.30673e-19)
(19.6039 20.3312 8.48248e-17)
(21.0441 20.9777 0)
(22.5847 21.4811 -3.38591e-16)
(24.193 21.8122 8.09774e-18)
(25.8568 21.9593 -3.38396e-16)
(27.5434 21.9102 -6.8402e-16)
(29.2244 21.6571 0)
(30.8756 21.1987 -1.64677e-15)
(32.4665 20.5385 -1.41202e-15)
(33.9701 19.684 -3.43055e-15)
(35.361 18.6473 0)
(36.6141 17.4447 -2.1093e-15)
(37.7062 16.0965 -2.2098e-15)
(38.6185 14.6223 2.39254e-15)
(39.3345 13.0462 -2.35266e-15)
(39.8383 11.4019 2.17849e-15)
(40.1194 9.72872 2.67415e-16)
(40.1743 8.07445 -2.30212e-15)
(40.0122 6.48717 0)
(39.6572 5.01167 -1.97312e-15)
(39.151 3.68035 1.15699e-16)
(38.5432 2.48688 8.58507e-16)
(37.8635 1.40101 0)
(37.117 0.411824 -2.93957e-17)
(36.3077 -0.479807 6.30116e-17)
(35.4449 -1.27632 2.42218e-15)
(34.5354 -1.97957 -2.24512e-15)
(33.5822 -2.58973 -3.8996e-15)
(32.5817 -3.10635 3.30533e-15)
(31.5248 -3.52781 -6.08607e-17)
(30.3738 -3.84908 4.41866e-15)
(29.1005 -4.05267 6.16453e-15)
(27.4943 -4.10735 3.55528e-15)
(25.6834 -3.83228 -1.0955e-17)
(21.9939 -3.28411 -3.74881e-18)
(14.3937 15.9214 1.02226e-17)
(13.6998 14.9152 1.28567e-16)
(13.0476 13.7224 1.75695e-16)
(12.4498 12.3707 -3.3026e-16)
(11.9956 10.9205 -1.31371e-15)
(11.7002 9.37806 4.32306e-16)
(11.5895 7.78722 1.11475e-15)
(11.6726 6.22962 2.8784e-15)
(11.9446 4.7645 1.16178e-15)
(12.3884 3.41925 -1.08954e-15)
(12.9706 2.22134 -3.69203e-17)
(13.6557 1.18876 -5.27349e-16)
(14.4162 0.317491 0)
(15.2256 -0.402109 -2.53613e-17)
(16.0604 -0.979063 -8.59639e-16)
(16.9041 -1.4283 3.75465e-16)
(17.7439 -1.76417 -3.6819e-16)
(18.5709 -2.00036 0)
(19.3807 -2.14855 5.57977e-16)
(20.1718 -2.21743 -9.72875e-16)
(20.9439 -2.21132 0)
(21.6957 -2.13038 7.1215e-16)
(22.4227 -1.97091 0)
(23.1119 -1.72824 -2.69067e-17)
(23.7397 -1.40673 2.66302e-17)
(24.2852 -1.02774 -2.761e-16)
(24.7435 -0.612516 -5.0139e-18)
(25.1177 -0.174084 -3.00002e-18)
(25.4098 0.276942 7.65128e-19)
(25.6208 0.729402 -4.33153e-17)
(25.7535 1.17319 -6.06477e-17)
(25.8119 1.60023 9.12351e-17)
(25.7987 2.0042 2.52212e-18)
(25.7163 2.3799 2.60453e-17)
(25.557 2.72454 0)
(25.3219 3.03211 1.41594e-17)
(24.9254 3.30143 2.06543e-15)
(24.4471 3.42813 -1.04574e-17)
(23.2171 3.39952 4.28468e-15)
(16.2126 15.9291 3.85155e-18)
(17.0229 16.7545 1.90481e-17)
(17.9925 17.5888 0)
(19.0873 18.3796 -2.50668e-17)
(20.2678 19.0683 3.37817e-17)
(21.5724 19.6645 0)
(22.9674 20.1371 -1.26044e-16)
(24.4244 20.4601 9.78867e-16)
(25.9366 20.623 -1.35156e-15)
(27.477 20.6133 4.31097e-16)
(29.022 20.4218 5.83115e-16)
(30.5522 20.0442 2.09807e-15)
(32.0412 19.4799 1.49914e-15)
(33.4638 18.7317 1.78315e-15)
(34.7955 17.8072 4.70175e-16)
(36.0108 16.7183 1.55114e-15)
(37.0859 15.481 2.12254e-15)
(37.9985 14.1167 2.05093e-15)
(38.7264 12.6553 -1.50665e-15)
(39.2532 11.1276 -4.60695e-15)
(39.5685 9.5677 0)
(39.6694 8.01505 8.44917e-17)
(39.5639 6.51148 1.79241e-15)
(39.2728 5.09677 1.87793e-15)
(38.8307 3.80114 -1.06622e-16)
(38.2788 2.62547 -7.74909e-16)
(37.6448 1.54913 5.55322e-18)
(36.936 0.56379 -3.93409e-16)
(36.1566 -0.328333 4.1394e-17)
(35.3146 -1.12769 -4.54277e-15)
(34.4173 -1.835 -7.7014e-18)
(33.4698 -2.44954 -6.12942e-17)
(32.4738 -2.97037 -3.17683e-15)
(31.4305 -3.3958 -6.05449e-17)
(30.3181 -3.72194 -4.12488e-15)
(29.1329 -3.93265 -1.17808e-14)
(27.696 -4.00211 3.36637e-15)
(26.1793 -3.73685 6.26216e-16)
(23.0052 -3.24333 2.87882e-15)
(15.5088 15.0759 -4.66168e-17)
(14.8666 14.1736 -1.75229e-16)
(14.254 13.102 -1.27719e-16)
(13.6836 11.8856 -3.25707e-16)
(13.2365 10.5826 7.34411e-16)
(12.9243 9.19345 -5.30267e-17)
(12.7705 7.75282 -2.83449e-15)
(12.7868 6.33574 -9.92378e-16)
(12.9701 4.99774 1.44345e-17)
(13.3058 3.75852 0)
(13.7677 2.6414 -9.33262e-16)
(14.328 1.66311 8.72289e-16)
(14.9656 0.820677 -8.41612e-16)
(15.6599 0.107736 -4.31518e-16)
(16.3915 -0.480435 3.61203e-16)
(17.1462 -0.954038 3.58895e-16)
(17.9118 -1.32249 1.2901e-15)
(18.6784 -1.59515 -3.05479e-16)
(19.4398 -1.78063 -5.2143e-16)
(20.1921 -1.88581 0)
(20.9325 -1.91428 -7.93673e-16)
(21.6577 -1.86657 -5.91328e-16)
(22.3619 -1.74013 -1.18832e-17)
(23.0327 -1.53223 -6.37583e-17)
(23.6486 -1.24694 -2.09071e-17)
(24.1898 -0.901533 3.1945e-16)
(24.6491 -0.515631 -6.17052e-18)
(25.0275 -0.10252 4.96056e-17)
(25.3259 0.326924 8.80521e-18)
(25.5448 0.761429 3.96769e-17)
(25.6862 1.19055 -1.02787e-17)
(25.7535 1.6057 -2.00454e-16)
(25.7492 1.99997 -1.89001e-16)
(25.6751 2.36746 -1.88159e-16)
(25.5237 2.70464 -8.48841e-18)
(25.2959 3.00366 4.797e-18)
(24.9111 3.26196 -2.07869e-15)
(24.4444 3.36802 -2.93584e-15)
(23.3121 3.31349 -3.93977e-15)
(17.1262 15.0976 -1.17856e-17)
(17.8733 15.8466 -6.86734e-18)
(18.7659 16.6066 -1.18662e-17)
(19.77 17.3286 -2.72837e-17)
(20.8462 17.9586 6.3478e-17)
(22.0342 18.5094 -1.49962e-16)
(23.3028 18.9528 4.77416e-16)
(24.6266 19.2656 0)
(26.0028 19.4396 4.1238e-16)
(27.4082 19.4624 1.11394e-17)
(28.8238 19.3248 -5.0073e-16)
(30.2347 19.021 -1.93471e-15)
(31.6181 18.5479 -7.83592e-16)
(32.9516 17.905 0)
(34.2129 17.096 0)
(35.3773 16.1287 0)
(36.4209 15.016 0)
(37.3209 13.7751 -1.98534e-15)
(38.0571 12.4264 1.97152e-15)
(38.611 10.9974 1.92884e-15)
(38.9692 9.52125 -1.55159e-15)
(39.1259 8.03721 1.36009e-15)
(39.0847 6.58718 -1.40153e-15)
(38.862 5.2109 -1.0253e-16)
(38.4864 3.93795 -4.66622e-17)
(37.993 2.77319 7.84503e-16)
(37.4082 1.70251 1.68803e-16)
(36.7422 0.71938 0)
(36.0002 -0.173699 0)
(35.1897 -0.975937 3.80699e-17)
(34.3174 -1.68739 0)
(33.3874 -2.30667 3.38276e-15)
(32.4016 -2.83207 -3.00531e-15)
(31.3621 -3.261 -4.84815e-15)
(30.2531 -3.58919 7.69724e-15)
(29.0851 -3.79926 5.61098e-15)
(27.7117 -3.87053 -3.21494e-15)
(26.3737 -3.6015 -1.21709e-15)
(23.7111 -3.15236 -2.7586e-15)
(16.4736 14.324 0)
(15.8762 13.5088 4.90446e-17)
(15.2992 12.5388 2.4364e-16)
(14.7547 11.4361 -1.05273e-15)
(14.3177 10.2569 9.26123e-16)
(13.996 8.99675 -7.51034e-16)
(13.8127 7.68396 7.62034e-18)
(13.7801 6.38895 7.55197e-16)
(13.8961 5.16312 8.02422e-16)
(14.1481 4.0207 0)
(14.5148 2.98142 3.87383e-16)
(14.9735 2.06055 -1.18421e-15)
(15.508 1.25506 1.87918e-15)
(16.102 0.560128 3.42696e-16)
(16.7402 -0.0268113 -6.9771e-16)
(17.411 -0.512505 -6.50095e-16)
(18.1038 -0.902788 -5.97855e-16)
(18.8088 -1.2035 0)
(19.5191 -1.42022 0)
(20.2293 -1.5577 0)
(20.9347 -1.61845 7.46192e-16)
(21.6304 -1.60277 0)
(22.3097 -1.50875 -4.81161e-16)
(22.9604 -1.33489 -6.15054e-17)
(23.5628 -1.08484 -3.70224e-16)
(24.0976 -0.772764 -2.83344e-16)
(24.5561 -0.416393 0)
(24.9374 -0.0290315 -4.13761e-17)
(25.2411 0.378303 -9.357e-18)
(25.4671 0.794251 1.74269e-18)
(25.6168 1.20809 1.39972e-16)
(25.6928 1.61079 -1.76203e-17)
(25.6971 1.99497 1.83473e-16)
(25.6313 2.35401 -2.26728e-16)
(25.4881 2.68355 0)
(25.2678 2.97391 -1.36275e-17)
(24.8954 3.22093 -3.48434e-17)
(24.4423 3.30821 2.79196e-15)
(23.3996 3.22963 -2.35808e-17)
(17.9294 14.3524 1.41756e-17)
(18.6233 15.0351 0)
(19.4513 15.7295 4.35388e-17)
(20.3793 16.3899 -9.41628e-18)
(21.3687 16.9661 -3.70126e-17)
(22.4591 17.473 1.40761e-16)
(23.6213 17.8849 -2.1096e-16)
(24.8321 18.1815 -2.52474e-16)
(26.0916 18.3559 0)
(27.3797 18.3967 -4.33393e-16)
(28.6811 18.295 -4.63033e-16)
(29.9846 18.0446 4.59489e-16)
(31.2703 17.6405 1.71074e-15)
(32.5195 17.0799 6.83623e-16)
(33.7119 16.3635 -2.06764e-15)
(34.8242 15.496 -1.4869e-15)
(35.8333 14.4865 1.16906e-15)
(36.7167 13.3487 8.6152e-16)
(37.4528 12.1022 -4.31439e-16)
(38.0217 10.773 4.29979e-16)
(38.4087 9.39105 1.09104e-15)
(38.6066 7.99134 2.03006e-16)
(38.6167 6.61176 -1.90688e-16)
(38.452 5.28916 -1.26837e-15)
(38.1355 4.05166 0)
(37.6963 2.9073 -6.64819e-16)
(37.1587 1.84856 -3.17374e-16)
(36.5346 0.871894 -2.92753e-16)
(35.8305 -0.0191823 -1.08283e-15)
(35.0538 -0.82241 4.05366e-15)
(34.2112 -1.53681 1.66908e-15)
(33.3067 -2.16031 3.92064e-18)
(32.3411 -2.69034 3.86459e-17)
(31.3156 -3.12324 0)
(30.2142 -3.45381 -3.63534e-15)
(29.0492 -3.66226 0)
(27.6908 -3.73109 0)
(26.4075 -3.44886 5.87648e-16)
(24.153 -3.02151 4.67841e-18)
(17.3199 13.6476 -4.78793e-17)
(16.7609 12.9069 1.64401e-16)
(16.2149 12.024 1.10019e-17)
(15.6943 11.0185 2.34449e-16)
(15.2686 9.94474 -8.48533e-16)
(14.9428 8.79487 6.31761e-16)
(14.7391 7.5923 3.48916e-17)
(14.6706 6.40421 -6.30735e-16)
(14.7351 5.27749 -6.20655e-16)
(14.9219 4.22264 -6.62884e-16)
(15.2128 3.25677 -1.31939e-15)
(15.5888 2.39355 0)
(16.0369 1.6293 -6.79592e-16)
(16.5445 0.959703 -2.4173e-17)
(17.0993 0.383473 0)
(17.6926 -0.104286 -5.74479e-16)
(18.3154 -0.506729 -2.73934e-16)
(18.9593 -0.827098 -2.58266e-16)
(19.6172 -1.06846 8.93275e-16)
(20.2829 -1.23342 7.98764e-16)
(20.9508 -1.32304 -8.31067e-17)
(21.6147 -1.33721 6.199e-16)
(22.2673 -1.27422 1.23465e-16)
(22.8963 -1.1331 -5.91966e-17)
(23.4833 -0.917156 3.30537e-16)
(24.0098 -0.638 2.01789e-17)
(24.4657 -0.311329 0)
(24.8483 0.049824 0)
(25.1562 0.434365 -1.83922e-18)
(25.3885 0.830964 4.62086e-18)
(25.5458 1.22869 -1.55924e-16)
(25.6301 1.61812 -1.71747e-17)
(25.643 1.99142 2.41257e-16)
(25.5856 2.34126 2.17104e-16)
(25.4506 2.66243 1.013e-17)
(25.2384 2.94359 3.64365e-18)
(24.879 3.17891 3.86871e-15)
(24.4409 3.24885 -2.66844e-15)
(23.4837 3.14877 2.201e-17)
(18.6387 13.6793 5.42376e-18)
(19.2866 14.304 0)
(20.0586 14.9405 -2.79145e-17)
(20.921 15.5458 0)
(21.8355 16.0739 -8.27037e-17)
(22.8417 16.5403 8.01297e-17)
(23.9117 16.9219 1.60803e-16)
(25.0242 17.2006 2.3817e-16)
(26.1809 17.3709 0)
(27.3644 17.4229 -2.89048e-16)
(28.5623 17.3484 4.74642e-16)
(29.7662 17.1407 -9.72349e-16)
(30.9594 16.7945 -5.43281e-16)
(32.1261 16.3056 -5.51235e-16)
(33.2482 15.6724 1.31806e-15)
(34.3046 14.8969 1.42207e-15)
(35.2737 13.9852 -1.51964e-15)
(36.1331 12.9484 -1.5074e-15)
(36.8619 11.802 0)
(37.4402 10.5677 3.94984e-16)
(37.8517 9.27252 -7.64718e-16)
(38.0871 7.94927 1.88371e-16)
(38.1452 6.63386 4.1709e-18)
(38.0351 5.36148 3.00035e-15)
(37.775 4.15908 -1.64047e-16)
(37.3888 3.03666 9.94345e-17)
(36.8981 1.99162 2.94691e-16)
(36.3158 1.02319 3.11987e-16)
(35.6493 0.135748 9.35869e-16)
(34.9065 -0.667091 -1.87423e-15)
(34.0943 -1.38332 -1.53697e-15)
(33.2171 -2.01018 -6.02881e-15)
(32.2759 -2.54438 5.19298e-15)
(31.2714 -2.98123 -7.35614e-17)
(30.1872 -3.31465 3.39908e-15)
(29.0333 -3.52223 -1.06213e-16)
(27.6895 -3.58892 5.9155e-17)
(26.4 -3.29348 4.18054e-18)
(24.4188 -2.86527 -2.13001e-15)
(18.0671 13.0345 2.33658e-17)
(17.5417 12.3581 -8.52697e-17)
(17.0237 11.5505 1.68816e-16)
(16.5251 10.6293 0)
(16.1116 9.64673 4.9625e-16)
(15.7854 8.59204 0)
(15.568 7.48581 0)
(15.4729 6.39183 0)
(15.4979 5.35307 1.1559e-15)
(15.6335 4.37736 -5.72517e-16)
(15.8638 3.47983 6.46667e-16)
(16.1723 2.67278 0)
(16.5483 1.95168 0)
(16.9817 1.31207 -5.87382e-16)
(17.463 0.753197 0)
(17.9856 0.271298 5.3541e-16)
(18.5427 -0.135455 1.2421e-17)
(19.127 -0.468203 0)
(19.7322 -0.727934 -6.38818e-16)
(20.3522 -0.915483 -9.47344e-16)
(20.9806 -1.03061 -6.60175e-16)
(21.6108 -1.07238 -5.75358e-16)
(22.2348 -1.0388 9.86693e-16)
(22.8407 -0.929063 0)
(23.4107 -0.746032 3.31974e-16)
(23.9269 -0.499078 3.08579e-16)
(24.3784 -0.202004 1.16334e-16)
(24.7608 0.13268 0)
(25.0717 0.493942 -8.95845e-18)
(25.3095 0.870539 -5.54832e-17)
(25.4738 1.25147 1.65198e-16)
(25.5661 1.62695 -1.66929e-17)
(25.5873 1.98873 -2.21003e-16)
(25.5383 2.32878 2.4374e-16)
(25.4118 2.64108 -2.07218e-18)
(25.2079 2.91269 9.92734e-18)
(24.8625 3.13599 -3.77263e-15)
(24.4405 3.19029 2.4997e-15)
(23.5653 3.07154 6.14877e-15)
(19.2698 13.0667 2.31824e-18)
(19.8773 13.6401 -1.58421e-17)
(20.6004 14.2251 0)
(21.4056 14.7809 -3.91383e-18)
(22.2553 15.2651 0)
(23.1885 15.6938 0)
(24.1784 16.0461 1.86297e-17)
(25.2051 16.3057 2.06211e-16)
(26.2716 16.4683 4.75442e-16)
(27.3625 16.5253 1.20813e-15)
(28.4675 16.4695 6.81107e-16)
(29.5808 16.2946 7.83962e-16)
(30.6883 15.9948 0)
(31.7767 15.5649 1.51852e-15)
(32.8306 15.002 -5.37278e-16)
(33.8308 14.3062 0)
(34.7573 13.4809 1.26886e-15)
(35.589 12.5344 1.44422e-15)
(36.3054 11.4794 0)
(36.8865 10.3349 1.40441e-15)
(37.315 9.12545 -1.37222e-15)
(37.5803 7.88043 0)
(37.6792 6.63258 -1.62466e-16)
(37.6174 5.41467 3.14223e-17)
(37.4091 4.25226 7.73817e-17)
(37.0731 3.15659 1.15921e-15)
(36.6283 2.12905 -3.96467e-18)
(36.0875 1.17175 -3.08687e-17)
(35.4588 0.290289 -2.59808e-17)
(34.7501 -0.51046 5.68497e-17)
(33.9684 -1.22722 1.54881e-15)
(33.1189 -1.85643 5.45664e-15)
(32.2027 -2.39404 4.28761e-17)
(31.2211 -2.83441 -3.96177e-15)
(30.1587 -3.17063 -3.08945e-15)
(29.0235 -3.378 -4.57039e-15)
(27.7066 -3.44313 -2.662e-15)
(26.407 -3.14059 2.09358e-17)
(24.5958 -2.69826 1.98607e-15)
(18.7314 12.4747 -5.43316e-17)
(18.2358 11.8547 -2.04854e-16)
(17.7431 11.113 4.08081e-16)
(17.2652 10.2656 0)
(16.8641 9.36261 8.09621e-16)
(16.5402 8.39124 0)
(16.314 7.36992 -4.5271e-16)
(16.1992 6.35935 1.82005e-15)
(16.1938 5.39893 -1.41045e-15)
(16.2889 4.49495 0)
(16.4704 3.66061 1.04986e-15)
(16.7237 2.90708 1.0169e-15)
(17.0395 2.22917 0)
(17.4096 1.62222 -1.00602e-15)
(17.8264 1.0854 2.44049e-16)
(18.2854 0.61518 -2.44165e-16)
(18.7815 0.210646 2.38181e-16)
(19.3089 -0.128075 4.19283e-16)
(19.8623 -0.400475 -1.50832e-17)
(20.4361 -0.605849 5.09562e-16)
(21.0238 -0.742692 1.51523e-16)
(21.6187 -0.809195 -1.44662e-16)
(22.2127 -0.803007 -4.68597e-16)
(22.7939 -0.723026 4.0358e-16)
(23.3453 -0.571443 -2.9483e-16)
(23.8494 -0.355843 -3.12958e-16)
(24.2947 -0.0881272 -1.10675e-16)
(24.6755 0.21992 -1.26626e-18)
(24.9882 0.557458 9.82152e-18)
(25.2305 0.913457 5.30654e-17)
(25.4013 1.2769 8.89972e-18)
(25.5011 1.63772 -1.61734e-17)
(25.5305 1.98729 2.76316e-16)
(25.4898 2.31692 -2.49977e-16)
(25.372 2.61975 1.04197e-17)
(25.1769 2.8814 -7.49344e-16)
(24.8461 3.0925 1.83355e-15)
(24.4412 3.13269 0)
(23.6443 2.99769 -5.89563e-15)
(19.834 12.5058 8.97724e-18)
(20.4058 13.0336 0)
(21.0855 13.5723 0)
(21.8403 14.0836 -1.31561e-17)
(22.6329 14.528 -1.95842e-17)
(23.5019 14.9219 0)
(24.4213 15.2462 0)
(25.3723 15.4865 -6.79733e-16)
(26.3589 15.6395 -3.40479e-17)
(27.3672 15.6979 -4.12028e-17)
(28.3886 15.6552 -1.57634e-15)
(29.4192 15.5056 -4.10838e-16)
(30.4472 15.2435 7.81685e-16)
(31.4615 14.8635 -6.6815e-17)
(32.4492 14.3616 0)
(33.3931 13.7363 0)
(34.2753 12.9892 -3.4821e-15)
(35.0758 12.1259 -6.38381e-16)
(35.7749 11.157 6.52886e-16)
(36.3533 10.0977 -1.36256e-15)
(36.7934 8.96984 2.58658e-15)
(37.083 7.79996 1.22442e-15)
(37.2171 6.61808 -1.18438e-15)
(37.1987 5.45486 -1.33574e-15)
(37.0381 4.33438 2.11554e-16)
(36.7499 3.26835 -1.14221e-15)
(36.35 2.26108 -1.28833e-16)
(35.8506 1.31734 2.87148e-17)
(35.2599 0.443937 -2.86774e-17)
(34.5857 -0.352967 9.63397e-17)
(33.8352 -1.06889 -3.98537e-17)
(33.0136 -1.69941 -2.69572e-15)
(32.1229 -2.23959 -1.02116e-16)
(31.1646 -2.68288 1.2121e-16)
(30.1251 -3.02153 0)
(29.0116 -3.22903 4.25003e-15)
(27.7288 -3.29237 2.49303e-15)
(26.4369 -2.98922 0)
(24.7411 -2.52928 0)
(19.3254 11.9608 0)
(18.8564 11.3905 1.83666e-16)
(18.387 10.707 -6.12141e-16)
(17.9286 9.92503 -2.97862e-16)
(17.5397 9.09211 -7.35489e-16)
(17.2201 8.19425 0)
(16.9887 7.24843 0)
(16.8594 6.31227 -8.14759e-16)
(16.8305 5.42212 8.53532e-16)
(16.8935 4.58301 0)
(17.0356 3.80677 -4.45279e-16)
(17.2435 3.1037 -4.80765e-16)
(17.509 2.46819 4.5553e-16)
(17.8252 1.89499 4.72998e-16)
(18.186 1.38296 -8.78865e-16)
(18.5882 0.928717 0)
(19.0283 0.53157 -1.99422e-16)
(19.5021 0.192353 1.20182e-17)
(20.0054 -0.0875108 8.86426e-16)
(20.5333 -0.306155 -1.64899e-16)
(21.0798 -0.460936 1.58142e-16)
(21.6384 -0.549227 -1.21274e-16)
(22.2011 -0.568138 1.71763e-16)
(22.7564 -0.516103 -8.20269e-16)
(23.2877 -0.394451 -2.92112e-16)
(23.778 -0.209119 2.54815e-16)
(24.2153 0.0297027 -1.56414e-17)
(24.5929 0.311136 0)
(24.9062 0.624691 -9.34002e-18)
(25.152 0.959601 5.65582e-17)
(25.3284 1.30493 -8.52969e-17)
(25.4354 1.65043 1.48559e-16)
(25.4727 1.98711 -5.60027e-16)
(25.4403 2.30571 5.81915e-16)
(25.3314 2.5985 -8.85434e-18)
(25.1456 2.84985 7.09868e-16)
(24.8302 3.04855 3.36552e-17)
(24.4432 3.07629 -7.26745e-17)
(23.7207 2.92771 -5.28859e-15)
(20.3408 11.9897 -8.65128e-18)
(20.8806 12.4765 0)
(21.5215 12.9734 0)