/*--------------------------------*- C++ -*----------------------------------*\
  =========                 |
  \\      /  F ield         | OpenFOAM: The Open Source CFD Toolbox
   \\    /   O peration     | Website:  https://openfoam.org
    \\  /    A nd           | Version:  7
     \\/     M anipulation  |
\*---------------------------------------------------------------------------*/
FoamFile
{
    version     2.0;
    format      ascii;
    class       volScalarField;
    location    "250";
    object      nut;
}
// * * * * * * * * * * * * * * * * * * * * * * * * * * * * * * * * * * * * * //

dimensions      [0 2 -1 0 0 0 0];

internalField   nonuniform List<scalar> 
10720
(
0.0917789
0.0963047
0.101389
0.106904
0.113166
0.120184
0.128096
0.136763
0.146139
0.155891
0.165543
0.174673
0.18246
0.188462
0.1926
0.195051
0.196019
0.195785
0.194469
0.192263
0.18915
0.185209
0.180483
0.175191
0.169738
0.164403
0.159179
0.153932
0.148565
0.143075
0.13746
0.131688
0.125727
0.119531
0.112927
0.105808
0.0971064
0.087419
0.0650429
0.0874439
0.0827563
0.0776401
0.0713143
0.063747
0.0542943
0.042986
0.0369933
0.034687
0.0393688
0.046143
0.0518104
0.0565993
0.0609992
0.0652806
0.0695285
0.0737218
0.0778044
0.0817218
0.0854591
0.0890298
0.0924617
0.0957841
0.0989952
0.101907
0.104298
0.106144
0.107493
0.108404
0.108903
0.10905
0.108975
0.108675
0.108094
0.107141
0.105798
0.103617
0.101055
0.091265
0.100287
0.0998774
0.0991811
0.098219
0.0971875
0.0960146
0.0947819
0.0936007
0.092587
0.0926631
0.093792
0.0957035
0.0984836
0.102229
0.10693
0.112429
0.118642
0.125316
0.132301
0.13924
0.145997
0.152146
0.157381
0.161099
0.162832
0.162682
0.161075
0.158342
0.154813
0.150749
0.146344
0.141735
0.137023
0.132305
0.127686
0.123298
0.119306
0.116265
0.11051
0.100705
0.100801
0.101048
0.10081
0.100334
0.0995371
0.0981749
0.0958909
0.0929649
0.0893191
0.0852481
0.0811067
0.0770343
0.073071
0.0693509
0.0659413
0.0628948
0.0602327
0.057971
0.0560958
0.0545964
0.0534513
0.0526362
0.0521138
0.051858
0.0518294
0.0519623
0.0521894
0.0524557
0.0529372
0.0546521
0.0575984
0.061056
0.0644024
0.0673218
0.0698732
0.0720107
0.0759364
0.0792908
0.121571
0.121404
0.12103
0.120448
0.119774
0.118899
0.117822
0.116602
0.115189
0.113611
0.111936
0.110323
0.108911
0.107795
0.106968
0.106271
0.105733
0.105399
0.105226
0.10461
0.104496
0.105082
0.106561
0.108147
0.113669
0.120518
0.127227
0.133107
0.137894
0.141495
0.143944
0.145367
0.145946
0.145868
0.145319
0.144384
0.143354
0.14146
0.140539
0.121731
0.121673
0.121661
0.121394
0.120932
0.120247
0.119264
0.117948
0.116297
0.114287
0.111914
0.109246
0.106327
0.10317
0.0998721
0.0964752
0.0930426
0.08962
0.0862602
0.0829775
0.0798002
0.0767249
0.0737616
0.0708191
0.0678486
0.0649127
0.0620514
0.0593063
0.0567064
0.0542939
0.052072
0.0506732
0.0507898
0.0520606
0.0539985
0.0564106
0.0591583
0.0622768
0.0673099
0.128693
0.128589
0.128384
0.128076
0.127702
0.127222
0.126628
0.125942
0.12513
0.124203
0.123157
0.121981
0.120675
0.119248
0.117744
0.116113
0.114257
0.112216
0.109994
0.107568
0.104999
0.102472
0.100189
0.0981571
0.0969413
0.0968064
0.0976242
0.101332
0.10725
0.114099
0.121189
0.128085
0.134485
0.140235
0.145333
0.149817
0.153986
0.156987
0.159618
0.128769
0.128761
0.128744
0.128603
0.128365
0.128
0.12747
0.126747
0.125828
0.124693
0.123336
0.12177
0.120001
0.118019
0.115857
0.113527
0.111057
0.108474
0.105812
0.103088
0.100331
0.097548
0.0947358
0.0918113
0.0887097
0.0854775
0.0821445
0.0787475
0.0753191
0.0718933
0.0684928
0.0651546
0.0620059
0.0592232
0.0567427
0.0558854
0.0564837
0.0575494
0.0606947
0.132283
0.132215
0.132079
0.131882
0.131645
0.131339
0.130963
0.130526
0.13001
0.129419
0.128747
0.127986
0.127127
0.126163
0.125082
0.123873
0.122506
0.120949
0.119155
0.117107
0.114765
0.112144
0.109278
0.106279
0.103294
0.100826
0.0987231
0.0967595
0.0957959
0.0959664
0.0992361
0.105036
0.112364
0.120746
0.129794
0.139243
0.14905
0.159167
0.168361
0.132332
0.132323
0.132312
0.132219
0.132069
0.131832
0.13149
0.131032
0.130458
0.129758
0.128924
0.127962
0.126867
0.125628
0.124258
0.122749
0.121113
0.119354
0.117487
0.115517
0.113457
0.111307
0.10906
0.106649
0.104015
0.101182
0.0981654
0.094985
0.0916621
0.08822
0.084683
0.0810729
0.0774134
0.0737489
0.0700867
0.0665587
0.0634376
0.0604397
0.0596178
0.134338
0.134288
0.134199
0.134067
0.133904
0.133695
0.133439
0.13314
0.132789
0.132386
0.131927
0.131405
0.130815
0.130151
0.1294
0.128554
0.127594
0.126503
0.125248
0.123804
0.122125
0.120183
0.11794
0.115407
0.112671
0.109839
0.106973
0.104018
0.101165
0.0985864
0.0965272
0.0957571
0.0966159
0.101627
0.109446
0.119843
0.132652
0.148935
0.166821
0.134368
0.134361
0.13435
0.134285
0.134183
0.134019
0.133781
0.133467
0.133078
0.132608
0.132054
0.131417
0.130696
0.12988
0.128975
0.127974
0.126878
0.125686
0.124402
0.123025
0.121556
0.119991
0.118318
0.116485
0.114439
0.112184
0.109721
0.107054
0.104188
0.101134
0.0979041
0.0945135
0.0909764
0.0873086
0.083521
0.0795711
0.0754862
0.0708672
0.0646112
0.135649
0.135615
0.13555
0.135453
0.135336
0.135184
0.134999
0.134785
0.134533
0.134244
0.133916
0.133542
0.13312
0.132644
0.132104
0.131494
0.1308
0.130011
0.129104
0.128061
0.126852
0.125453
0.123831
0.121968
0.119888
0.117598
0.115093
0.112382
0.109479
0.106444
0.10328
0.100301
0.0975649
0.0961602
0.0968809
0.102669
0.113081
0.130701
0.156082
0.13567
0.135663
0.135652
0.135602
0.135529
0.135409
0.135233
0.135003
0.134723
0.134388
0.133997
0.13355
0.133047
0.132482
0.131855
0.131162
0.130401
0.12957
0.128669
0.127694
0.126645
0.125514
0.124288
0.122928
0.121389
0.119666
0.117751
0.115635
0.113314
0.110783
0.108042
0.105094
0.101942
0.098589
0.0950358
0.0912385
0.0871029
0.0825104
0.0737971
0.13655
0.136524
0.136475
0.136403
0.136314
0.1362
0.136061
0.135899
0.13571
0.135493
0.135248
0.134969
0.134653
0.134297
0.133893
0.133435
0.132914
0.132321
0.13164
0.130858
0.129954
0.128914
0.127716
0.126344
0.124803
0.123085
0.121156
0.118998
0.116585
0.113913
0.110974
0.107815
0.104449
0.101096
0.0980716
0.0966581
0.100102
0.11205
0.139424
0.136564
0.136556
0.136546
0.136506
0.13645
0.136359
0.136223
0.136047
0.135836
0.135586
0.135296
0.134969
0.134603
0.134195
0.133743
0.133244
0.132696
0.132097
0.131446
0.130738
0.129972
0.12914
0.128232
0.127218
0.126063
0.124759
0.123294
0.121656
0.119831
0.11781
0.11558
0.113136
0.110467
0.107566
0.10442
0.10099
0.0971165
0.092929
0.0839355
0.137202
0.137181
0.137143
0.137087
0.137017
0.136928
0.136819
0.136694
0.136547
0.13638
0.136192
0.135978
0.135736
0.135464
0.135156
0.134807
0.13441
0.133958
0.133439
0.132842
0.132152
0.131355
0.130438
0.12939
0.128217
0.126907
0.12543
0.12376
0.12187
0.11973
0.117308
0.114573
0.111517
0.108134
0.104443
0.100599
0.0977999
0.100345
0.122257
0.137212
0.137204
0.137193
0.137159
0.137116
0.137043
0.136936
0.136797
0.136632
0.136438
0.136216
0.135968
0.135692
0.135386
0.135049
0.134679
0.134273
0.133829
0.133345
0.132817
0.132244
0.131619
0.130934
0.130165
0.129287
0.128292
0.127168
0.125903
0.124482
0.122891
0.121115
0.119138
0.116947
0.114525
0.111847
0.108874
0.105417
0.101711
0.093341
0.137693
0.137676
0.137646
0.1376
0.137543
0.137472
0.137385
0.137285
0.137168
0.137036
0.136886
0.136717
0.136527
0.136312
0.13607
0.135795
0.135483
0.135127
0.13472
0.134254
0.133717
0.133099
0.132387
0.131574
0.130662
0.129644
0.128495
0.127193
0.125713
0.124023
0.12209
0.119876
0.117337
0.114409
0.111054
0.107095
0.102769
0.0978888
0.109704
0.1377
0.137692
0.13768
0.137651
0.137616
0.137558
0.13747
0.137357
0.137224
0.13707
0.136896
0.136701
0.136487
0.136251
0.135993
0.135711
0.135402
0.135065
0.134697
0.134296
0.133858
0.13338
0.132852
0.132258
0.13158
0.130809
0.129937
0.128951
0.12784
0.126588
0.12518
0.1236
0.121828
0.119845
0.11762
0.115115
0.112132
0.108934
0.10151
0.138074
0.13806
0.138035
0.137997
0.13795
0.137891
0.13782
0.137738
0.137643
0.137536
0.137415
0.137279
0.137127
0.136955
0.136761
0.136542
0.136294
0.136011
0.135688
0.135317
0.13489
0.134399
0.133834
0.133191
0.13247
0.131664
0.130754
0.129724
0.128551
0.127209
0.125668
0.12389
0.12183
0.119424
0.116601
0.113138
0.109076
0.102535
0.104365
0.13808
0.138072
0.13806
0.138034
0.138005
0.137956
0.137883
0.137789
0.137681
0.137555
0.137414
0.137259
0.137089
0.136902
0.1367
0.13648
0.136241
0.135979
0.135694
0.135382
0.135042
0.134669
0.134256
0.13379
0.133258
0.132652
0.131965
0.131188
0.13031
0.129318
0.128198
0.126933
0.125508
0.123898
0.122073
0.119997
0.117479
0.114778
0.108389
0.138378
0.138366
0.138344
0.138312
0.138272
0.138223
0.138163
0.138095
0.138017
0.137928
0.137829
0.137717
0.137592
0.137452
0.137294
0.137116
0.136914
0.136684
0.136422
0.136123
0.135778
0.135383
0.13493
0.134415
0.133838
0.133191
0.132461
0.131633
0.130691
0.129613
0.128374
0.126942
0.125275
0.123314
0.120991
0.118101
0.114643
0.108851
0.104341
0.138383
0.138375
0.138363
0.138338
0.138314
0.138273
0.138211
0.138132
0.138041
0.137937
0.137821
0.137695
0.137556
0.137407
0.137245
0.137071
0.136881
0.136674
0.136449
0.136203
0.135935
0.135639
0.135311
0.134941
0.134517
0.134035
0.133487
0.132866
0.132164
0.13137
0.130471
0.129454
0.128303
0.126997
0.125506
0.123799
0.121702
0.119454
0.114075
0.138625
0.138613
0.138594
0.138567
0.138533
0.138491
0.13844
0.138382
0.138316
0.138242
0.138159
0.138066
0.137963
0.137847
0.137716
0.137569
0.137403
0.137214
0.136999
0.136753
0.136472
0.136149
0.13578
0.135361
0.134893
0.134369
0.133776
0.133104
0.132338
0.131462
0.130455
0.12929
0.127934
0.126335
0.124432
0.12205
0.11915
0.114544
0.107614
0.138629
0.138621
0.138609
0.138586
0.138565
0.13853
0.138477
0.138409
0.138332
0.138245
0.138148
0.138043
0.137929
0.137807
0.137675
0.137534
0.137381
0.137216
0.137036
0.136839
0.136624
0.136387
0.136123
0.135825
0.135483
0.135094
0.134652
0.134151
0.133584
0.132941
0.132213
0.131389
0.130453
0.129388
0.128169
0.126766
0.125029
0.12317
0.118714
0.138828
0.138818
0.138801
0.138777
0.138748
0.138711
0.138667
0.138618
0.138562
0.138499
0.138429
0.13835
0.138263
0.138166
0.138056
0.137933
0.137795
0.137637
0.137459
0.137255
0.137021
0.136755
0.136451
0.136107
0.135723
0.135293
0.134807
0.134256
0.133627
0.132908
0.132082
0.131126
0.130013
0.1287
0.127135
0.125184
0.122729
0.119223
0.11207
0.138832
0.138825
0.138813
0.138792
0.138773
0.138742
0.138696
0.138637
0.138571
0.138497
0.138414
0.138326
0.138231
0.13813
0.138022
0.137906
0.137781
0.137647
0.137501
0.137341
0.137167
0.136974
0.13676
0.136517
0.136238
0.135921
0.135561
0.135153
0.13469
0.134165
0.13357
0.132895
0.132129
0.131256
0.130253
0.129097
0.127659
0.126121
0.122466
0.138998
0.138989
0.138974
0.138953
0.138926
0.138894
0.138856
0.138814
0.138765
0.138711
0.138652
0.138585
0.138511
0.138428
0.138336
0.138232
0.138115
0.137982
0.137832
0.137661
0.137466
0.137243
0.13699
0.136705
0.136386
0.13603
0.135628
0.135171
0.134652
0.134057
0.133373
0.132581
0.13166
0.130574
0.129278
0.127675
0.125597
0.122912
0.116494
0.139002
0.138996
0.138984
0.138964
0.138947
0.13892
0.138879
0.138828
0.138771
0.138706
0.138636
0.13856
0.13848
0.138395
0.138305
0.138209
0.138106
0.137996
0.137876
0.137745
0.137602
0.137444
0.137268
0.137068
0.136839
0.136578
0.136282
0.135946
0.135565
0.135133
0.134642
0.134086
0.133453
0.132732
0.131902
0.130945
0.129752
0.128475
0.125492
0.139143
0.139134
0.13912
0.139101
0.139078
0.139049
0.139016
0.138979
0.138937
0.13889
0.138839
0.138781
0.138718
0.138647
0.138568
0.13848
0.13838
0.138267
0.13814
0.137995
0.13783
0.137643
0.13743
0.13719
0.136924
0.136626
0.136291
0.13591
0.135476
0.13498
0.13441
0.133751
0.132982
0.132077
0.130995
0.12967
0.127916
0.125801
0.120392
0.139147
0.139142
0.13913
0.13911
0.139095
0.139071
0.139035
0.138989
0.138939
0.138883
0.138822
0.138757
0.138689
0.138616
0.13854
0.13846
0.138374
0.138282
0.138183
0.138075
0.137957
0.137826
0.13768
0.137514
0.137324
0.137108
0.136862
0.136584
0.136268
0.135909
0.135501
0.135039
0.134513
0.133913
0.133223
0.132426
0.131431
0.130365
0.127933
0.139266
0.139258
0.139245
0.139228
0.139207
0.139181
0.139152
0.13912
0.139083
0.139042
0.138998
0.138948
0.138893
0.138832
0.138764
0.138688
0.138602
0.138506
0.138397
0.138273
0.138133
0.137973
0.137793
0.137591
0.137366
0.137116
0.136833
0.136513
0.136149
0.135732
0.135253
0.1347
0.134056
0.133297
0.132389
0.131283
0.129804
0.128089
0.12365
0.139271
0.139266
0.139255
0.139236
0.139221
0.1392
0.139167
0.139127
0.139083
0.139033
0.13898
0.138924
0.138865
0.138803
0.138738
0.13867
0.138598
0.138521
0.138438
0.138348
0.138249
0.138141
0.138019
0.13788
0.137721
0.13754
0.137335
0.137102
0.136838
0.136538
0.136198
0.135811
0.135371
0.134869
0.134291
0.133623
0.132791
0.131896
0.129911
0.139373
0.139365
0.139353
0.139337
0.139318
0.139295
0.13927
0.139241
0.139209
0.139173
0.139134
0.139091
0.139043
0.13899
0.13893
0.138865
0.138791
0.138707
0.138613
0.138507
0.138386
0.13825
0.138096
0.137924
0.137734
0.137521
0.137282
0.137011
0.136703
0.136351
0.135946
0.135479
0.134935
0.134296
0.13353
0.1326
0.131354
0.129931
0.12632
0.139377
0.139373
0.139363
0.139345
0.139331
0.139311
0.139282
0.139246
0.139206
0.139163
0.139116
0.139067
0.139016
0.138962
0.138907
0.138849
0.138788
0.138723
0.138653
0.138577
0.138494
0.138402
0.1383
0.138183
0.138049
0.137897
0.137724
0.137529
0.137307
0.137055
0.136769
0.136443
0.136073
0.13565
0.135163
0.134601
0.133901
0.133147
0.131523
0.139466
0.139459
0.139447
0.139432
0.139415
0.139395
0.139372
0.139347
0.139318
0.139287
0.139252
0.139214
0.139172
0.139125
0.139074
0.139016
0.138952
0.138879
0.138798
0.138706
0.138602
0.138484
0.138352
0.138205
0.138042
0.137861
0.137657
0.137426
0.137164
0.136865
0.136521
0.136124
0.135663
0.135121
0.134472
0.133686
0.132635
0.131436
0.128497
0.13947
0.139467
0.139457
0.13944
0.139427
0.139408
0.139382
0.13935
0.139314
0.139275
0.139234
0.13919
0.139145
0.139099
0.139051
0.139002
0.138949
0.138894
0.138834
0.13877
0.1387
0.138623
0.138536
0.138437
0.138323
0.138194
0.138048
0.137883
0.137695
0.137482
0.137241
0.136966
0.136652
0.136294
0.135882
0.135406
0.134816
0.134176
0.132844
0.139548
0.13954
0.139529
0.139516
0.1395
0.139482
0.139461
0.139439
0.139413
0.139385
0.139355
0.139321
0.139284
0.139243
0.139198
0.139147
0.139091
0.139028
0.138957
0.138877
0.138786
0.138684
0.13857
0.138443
0.138303
0.138148
0.137973
0.137775
0.137551
0.137295
0.137002
0.136664
0.13627
0.135809
0.135256
0.134589
0.1337
0.132682
0.130279
0.139552
0.139549
0.13954
0.139523
0.13951
0.139493
0.13947
0.139441
0.139408
0.139373
0.139336
0.139298
0.139259
0.139218
0.139176
0.139134
0.139088
0.139041
0.13899
0.138935
0.138876
0.13881
0.138736
0.138651
0.138555
0.138445
0.138321
0.13818
0.13802
0.13784
0.137634
0.137401
0.137135
0.13683
0.13648
0.136075
0.135575
0.13503
0.133934
0.13962
0.139612
0.139601
0.139589
0.139575
0.139559
0.13954
0.13952
0.139497
0.139472
0.139445
0.139415
0.139382
0.139346
0.139306
0.139262
0.139212
0.139157
0.139095
0.139025
0.138946
0.138857
0.138758
0.138648
0.138527
0.138393
0.138242
0.138072
0.137879
0.137659
0.137407
0.137117
0.136781
0.136386
0.135914
0.135344
0.13459
0.133722
0.131752
0.139624
0.139622
0.139613
0.139597
0.139584
0.139569
0.139547
0.13952
0.139491
0.13946
0.139427
0.139393
0.139358
0.139322
0.139286
0.139248
0.139209
0.139168
0.139125
0.139078
0.139026
0.13897
0.138906
0.138834
0.138751
0.138657
0.138551
0.138431
0.138295
0.13814
0.137965
0.137766
0.137539
0.13728
0.13698
0.136635
0.136209
0.135743
0.134838
0.139683
0.139676
0.139666
0.139654
0.139642
0.139627
0.13961
0.139592
0.139572
0.139549
0.139525
0.139498
0.139469
0.139437
0.139402
0.139363
0.139319
0.139271
0.139216
0.139154
0.139085
0.139007
0.138921
0.138825
0.13872
0.138604
0.138473
0.138326
0.138159
0.137969
0.137752
0.137503
0.137213
0.136873
0.136469
0.135981
0.13534
0.134594
0.132999
0.139688
0.139686
0.139678
0.139662
0.13965
0.139635
0.139615
0.139591
0.139565
0.139537
0.139507
0.139476
0.139445
0.139413
0.139382
0.139349
0.139315
0.139279
0.139241
0.139201
0.139156
0.139108
0.139053
0.138991
0.13892
0.138839
0.138747
0.138644
0.138528
0.138395
0.138245
0.138075
0.137881
0.137659
0.137402
0.137106
0.136742
0.136343
0.135592
0.13974
0.139733
0.139723
0.139713
0.139701
0.139688
0.139673
0.139656
0.139638
0.139618
0.139596
0.139573
0.139547
0.139519
0.139488
0.139453
0.139415
0.139371
0.139323
0.139269
0.139208
0.13914
0.139064
0.13898
0.138888
0.138787
0.138673
0.138545
0.138401
0.138236
0.138048
0.137832
0.137581
0.137289
0.13694
0.13652
0.135974
0.135327
0.134054
0.139745
0.139744
0.139736
0.13972
0.139709
0.139695
0.139676
0.139655
0.139631
0.139605
0.139578
0.13955
0.139522
0.139494
0.139466
0.139437
0.139407
0.139376
0.139343
0.139308
0.13927
0.139228
0.13918
0.139126
0.139065
0.138995
0.138916
0.138827
0.138727
0.138613
0.138484
0.138338
0.138171
0.13798
0.13776
0.137505
0.137193
0.13685
0.136225
0.139791
0.139784
0.139774
0.139765
0.139754
0.139742
0.139728
0.139713
0.139697
0.139679
0.13966
0.13964
0.139617
0.139592
0.139565
0.139534
0.1395
0.139462
0.139419
0.139371
0.139317
0.139257
0.13919
0.139116
0.139036
0.138947
0.138848
0.138736
0.13861
0.138467
0.138303
0.138115
0.137898
0.137645
0.137344
0.136981
0.136515
0.135949
0.134933
0.139796
0.139795
0.139787
0.139772
0.139761
0.139748
0.139731
0.139711
0.139689
0.139666
0.139641
0.139616
0.139591
0.139566
0.139541
0.139515
0.139489
0.139462
0.139433
0.139402
0.139369
0.139332
0.139291
0.139244
0.139191
0.13913
0.139062
0.138985
0.138898
0.1388
0.138689
0.138562
0.138419
0.138254
0.138065
0.137845
0.137577
0.137281
0.136757
0.139837
0.13983
0.139821
0.139812
0.139802
0.139791
0.139778
0.139765
0.139751
0.139735
0.139719
0.139701
0.139681
0.139659
0.139634
0.139607
0.139577
0.139543
0.139505
0.139462
0.139415
0.139361
0.139302
0.139237
0.139167
0.139089
0.139002
0.138904
0.138793
0.138668
0.138525
0.138361
0.138172
0.137952
0.137691
0.137376
0.136977
0.136482
0.135664
0.139841
0.139842
0.139834
0.139819
0.139808
0.139796
0.13978
0.139762
0.139742
0.13972
0.139698
0.139675
0.139653
0.13963
0.139607
0.139585
0.139561
0.139537
0.139512
0.139485
0.139456
0.139424
0.139388
0.139347
0.1393
0.139248
0.139188
0.139122
0.139046
0.138961
0.138865
0.138756
0.138632
0.13849
0.138326
0.138137
0.137906
0.137649
0.137209
0.139878
0.139871
0.139862
0.139854
0.139845
0.139835
0.139824
0.139812
0.1398
0.139787
0.139772
0.139756
0.139739
0.139719
0.139698
0.139674
0.139647
0.139616
0.139582
0.139544
0.139502
0.139455
0.139402
0.139345
0.139283
0.139214
0.139137
0.139051
0.138954
0.138844
0.138719
0.138576
0.138411
0.138218
0.137991
0.137718
0.137375
0.136941
0.136274
0.139883
0.139883
0.139876
0.139862
0.139851
0.139839
0.139825
0.139807
0.139789
0.139769
0.139749
0.139728
0.139707
0.139687
0.139667
0.139646
0.139626
0.139604
0.139582
0.139558
0.139533
0.139505
0.139473
0.139437
0.139397
0.13935
0.139299
0.139241
0.139175
0.139102
0.139018
0.138923
0.138816
0.138693
0.138551
0.138387
0.138188
0.137966
0.137594
0.139915
0.139908
0.1399
0.139893
0.139884
0.139875
0.139866
0.139856
0.139845
0.139834
0.139822
0.139808
0.139792
0.139775
0.139755
0.139734
0.13971
0.139683
0.139652
0.139618
0.13958
0.139538
0.139492
0.139441
0.139386
0.139325
0.139258
0.139182
0.139096
0.139
0.13889
0.138764
0.138619
0.138451
0.138253
0.138015
0.137719
0.13734
0.13679
0.13992
0.139921
0.139914
0.1399
0.139889
0.139878
0.139865
0.139849
0.139832
0.139813
0.139794
0.139775
0.139757
0.139738
0.13972
0.139702
0.139683
0.139664
0.139644
0.139624
0.139601
0.139576
0.139549
0.139517
0.139481
0.139441
0.139396
0.139345
0.139288
0.139224
0.139151
0.139069
0.138976
0.138869
0.138746
0.138604
0.138431
0.138238
0.137924
0.139949
0.139942
0.139934
0.139927
0.13992
0.139912
0.139904
0.139896
0.139887
0.139878
0.139867
0.139855
0.139841
0.139825
0.139808
0.139789
0.139767
0.139743
0.139715
0.139685
0.139651
0.139613
0.139572
0.139527
0.139478
0.139425
0.139365
0.139298
0.139223
0.139137
0.139041
0.13893
0.138803
0.138656
0.138482
0.138273
0.138021
0.137688
0.137231
0.139954
0.139955
0.139949
0.139934
0.139924
0.139913
0.139901
0.139886
0.13987
0.139853
0.139836
0.139818
0.139801
0.139784
0.139768
0.139751
0.139735
0.139718
0.1397
0.139682
0.139662
0.13964
0.139616
0.139588
0.139557
0.139521
0.139482
0.139437
0.139387
0.139331
0.139268
0.139196
0.139115
0.139022
0.138915
0.138792
0.138643
0.138475
0.138207
0.139979
0.139973
0.139965
0.139959
0.139952
0.139946
0.13994
0.139933
0.139926
0.139918
0.139909
0.139898
0.139885
0.139872
0.139856
0.139839
0.139819
0.139797
0.139773
0.139746
0.139715
0.139681
0.139644
0.139604
0.139561
0.139513
0.139461
0.139401
0.139335
0.139259
0.139174
0.139077
0.138965
0.138835
0.138684
0.1385
0.138289
0.137996
0.137612
0.139984
0.139986
0.13998
0.139966
0.139955
0.139946
0.139934
0.13992
0.139905
0.139889
0.139873
0.139857
0.139841
0.139826
0.139811
0.139796
0.139781
0.139766
0.13975
0.139734
0.139716
0.139697
0.139676
0.139651
0.139624
0.139592
0.139558
0.139519
0.139475
0.139426
0.139371
0.139308
0.139237
0.139157
0.139063
0.138956
0.138826
0.13868
0.138452
0.140007
0.140001
0.139994
0.139988
0.139982
0.139977
0.139973
0.139968
0.139962
0.139955
0.139947
0.139937
0.139926
0.139914
0.1399
0.139884
0.139867
0.139847
0.139826
0.139801
0.139774
0.139744
0.13971
0.139674
0.139636
0.139594
0.139547
0.139494
0.139435
0.139368
0.139293
0.139207
0.139108
0.138994
0.138862
0.138698
0.138527
0.138271
0.137945
0.140012
0.140015
0.140009
0.139994
0.139984
0.139975
0.139964
0.139951
0.139937
0.139922
0.139907
0.139892
0.139877
0.139863
0.139849
0.139836
0.139823
0.139809
0.139796
0.139781
0.139765
0.139748
0.13973
0.139708
0.139683
0.139656
0.139625
0.139591
0.139553
0.13951
0.139462
0.139407
0.139345
0.139274
0.139193
0.1391
0.138987
0.138859
0.138665
0.140032
0.140026
0.14002
0.140014
0.14001
0.140007
0.140004
0.140001
0.139996
0.13999
0.139982
0.139974
0.139964
0.139953
0.139941
0.139927
0.139911
0.139894
0.139874
0.139852
0.139828
0.139801
0.139771
0.139739
0.139704
0.139666
0.139625
0.139578
0.139525
0.139466
0.139399
0.139323
0.139236
0.139135
0.139019
0.138874
0.138735
0.138514
0.138238
0.140037
0.140041
0.140035
0.14002
0.14001
0.140002
0.139991
0.139979
0.139966
0.139952
0.139937
0.139923
0.13991
0.139897
0.139885
0.139873
0.139861
0.139849
0.139836
0.139824
0.13981
0.139795
0.139778
0.139759
0.139737
0.139713
0.139686
0.139656
0.139622
0.139584
0.139542
0.139494
0.13944
0.139378
0.139307
0.139226
0.139128
0.139016
0.13885
0.140055
0.14005
0.140043
0.140039
0.140036
0.140035
0.140034
0.140031
0.140027
0.140022
0.140015
0.140008
0.139999
0.13999
0.139979
0.139967
0.139953
0.139937
0.139919
0.1399
0.139878
0.139853
0.139826
0.139798
0.139767
0.139733
0.139696
0.139654
0.139607
0.139554
0.139495
0.139427
0.13935
0.139261
0.13916
0.139035
0.138919
0.138727
0.138495
0.14006
0.140064
0.140059
0.140044
0.140034
0.140026
0.140016
0.140005
0.139992
0.139978
0.139965
0.139952
0.13994
0.139928
0.139917
0.139906
0.139895
0.139885
0.139874
0.139862
0.13985
0.139837
0.139822
0.139805
0.139786
0.139764
0.13974
0.139714
0.139684
0.139651
0.139614
0.139572
0.139524
0.13947
0.139408
0.139337
0.139252
0.139154
0.139011
0.140076
0.140071
0.140065
0.140062
0.140061
0.140061
0.140061
0.140059
0.140055
0.140051
0.140046
0.14004
0.140032
0.140024
0.140015
0.140004
0.139991
0.139977
0.139962
0.139944
0.139924
0.139902
0.139878
0.139852
0.139824
0.139794
0.139761
0.139723
0.139681
0.139634
0.139581
0.139521
0.139453
0.139374
0.139288
0.139183
0.139085
0.138916
0.13872
0.140081
0.140086
0.140081
0.140066
0.140056
0.140049
0.140039
0.140028
0.140015
0.140003
0.13999
0.139978
0.139967
0.139956
0.139946
0.139937
0.139927
0.139918
0.139908
0.139898
0.139887
0.139875
0.139862
0.139847
0.139829
0.13981
0.139789
0.139766
0.139739
0.13971
0.139677
0.13964
0.139599
0.139551
0.139497
0.139435
0.13936
0.139275
0.139153
0.140096
0.140091
0.140085
0.140084
0.140085
0.140086
0.140086
0.140085
0.140082
0.140079
0.140075
0.14007
0.140064
0.140057
0.140048
0.140039
0.140028
0.140015
0.140001
0.139985
0.139967
0.139947
0.139925
0.139902
0.139877
0.13985
0.13982
0.139787
0.139749
0.139707
0.13966
0.139606
0.139546
0.139477
0.139405
0.139318
0.139236
0.139086
0.138918
0.140101
0.140106
0.140101
0.140086
0.140076
0.140069
0.14006
0.140049
0.140037
0.140025
0.140013
0.140002
0.139992
0.139982
0.139973
0.139965
0.139956
0.139948
0.139939
0.13993
0.13992
0.13991
0.139898
0.139884
0.139869
0.139852
0.139833
0.139812
0.139789
0.139763
0.139734
0.139702
0.139665
0.139624
0.139576
0.139521
0.139457
0.139382
0.139277
0.140114
0.140109
0.140103
0.140104
0.140108
0.140109
0.140109
0.140109
0.140107
0.140105
0.140102
0.140098
0.140093
0.140087
0.14008
0.140071
0.140062
0.14005
0.140038
0.140023
0.140007
0.139989
0.139969
0.139949
0.139926
0.139902
0.139875
0.139845
0.139812
0.139774
0.139732
0.139684
0.139631
0.139573
0.139513
0.13944
0.139371
0.13924
0.139095
0.140118
0.140124
0.140119
0.140104
0.140095
0.140088
0.140079
0.140068
0.140056
0.140045
0.140034
0.140024
0.140015
0.140007
0.139998
0.139991
0.139983
0.139975
0.139967
0.139959
0.13995
0.139941
0.139931
0.139918
0.139905
0.13989
0.139873
0.139854
0.139834
0.139811
0.139785
0.139757
0.139725
0.139688
0.139647
0.139599
0.139542
0.139477
0.139387
0.14013
0.140125
0.140121
0.140125
0.140129
0.14013
0.140131
0.140132
0.140131
0.14013
0.140128
0.140125
0.140121
0.140116
0.14011
0.140102
0.140093
0.140084
0.140072
0.140059
0.140045
0.140029
0.140011
0.139992
0.139972
0.13995
0.139926
0.139899
0.139869
0.139835
0.139797
0.139755
0.139711
0.139662
0.139612
0.139551
0.139492
0.139378
0.139254
0.140134
0.14014
0.140136
0.14012
0.140112
0.140105
0.140096
0.140085
0.140074
0.140064
0.140054
0.140045
0.140037
0.140029
0.140021
0.140014
0.140007
0.14
0.139993
0.139986
0.139978
0.13997
0.13996
0.13995
0.139938
0.139924
0.139909
0.139893
0.139875
0.139855
0.139833
0.139808
0.139779
0.139747
0.139711
0.139669
0.139619
0.139562
0.139484
0.140146
0.14014
0.140137
0.140144
0.140148
0.140149
0.140152
0.140153
0.140154
0.140154
0.140153
0.14015
0.140147
0.140143
0.140138
0.140131
0.140124
0.140115
0.140105
0.140094
0.140081
0.140067
0.140051
0.140034
0.140016
0.139996
0.139974
0.139949
0.139922
0.139892
0.139859
0.139824
0.139787
0.139746
0.139703
0.139651
0.139601
0.139503
0.139396
0.140149
0.140155
0.140151
0.140135
0.140127
0.140121
0.140112
0.140101
0.14009
0.140081
0.140072
0.140064
0.140056
0.140049
0.140042
0.140036
0.14003
0.140023
0.140017
0.140011
0.140004
0.139996
0.139988
0.139979
0.139968
0.139957
0.139944
0.13993
0.139914
0.139897
0.139878
0.139856
0.139831
0.139803
0.139771
0.139734
0.139691
0.13964
0.139573
0.140159
0.140154
0.140153
0.140162
0.140165
0.140166
0.14017
0.140172
0.140174
0.140175
0.140174
0.140173
0.140171
0.140168
0.140164
0.140159
0.140153
0.140147
0.140139
0.140129
0.140119
0.140106
0.140093
0.140078
0.140061
0.140043
0.140023
0.14
0.139976
0.139949
0.139921
0.139891
0.139859
0.139825
0.139788
0.139742
0.139698
0.139616
0.139525
0.140162
0.140168
0.140164
0.140148
0.140141
0.140135
0.140126
0.140115
0.140105
0.140097
0.140089
0.140081
0.140075
0.140068
0.140062
0.140056
0.14005
0.140045
0.140039
0.140034
0.140028
0.140021
0.140015
0.140007
0.139999
0.139989
0.139979
0.139967
0.139954
0.13994
0.139923
0.139904
0.139883
0.139858
0.13983
0.139797
0.139759
0.139712
0.139662
0.140172
0.140166
0.140167
0.140177
0.140179
0.140181
0.140185
0.140187
0.140189
0.14019
0.14019
0.14019
0.140189
0.140188
0.140186
0.140183
0.14018
0.140176
0.140171
0.140165
0.140158
0.14015
0.140141
0.14013
0.140118
0.140104
0.140086
0.140066
0.140044
0.14002
0.139994
0.139966
0.139936
0.139903
0.139868
0.139827
0.139787
0.139719
0.139642
0.140173
0.140177
0.140173
0.14016
0.140154
0.140148
0.140138
0.140128
0.140119
0.140111
0.140104
0.140098
0.140091
0.140085
0.14008
0.140075
0.14007
0.140065
0.140061
0.140056
0.140051
0.140046
0.140042
0.140037
0.14003
0.140023
0.140015
0.140006
0.139995
0.139983
0.139969
0.139953
0.139935
0.139913
0.139888
0.139859
0.139826
0.139782
0.139745
0.140181
0.140177
0.14018
0.140186
0.140189
0.140191
0.140194
0.140196
0.140198
0.140199
0.1402
0.140201
0.140201
0.140201
0.1402
0.140199
0.140197
0.140195
0.140193
0.14019
0.140186
0.140182
0.140176
0.14017
0.140163
0.140154
0.140143
0.14013
0.140114
0.140095
0.140072
0.140047
0.140019
0.139987
0.139952
0.139913
0.139873
0.139813
0.139746
0.140181
0.140182
0.140179
0.140169
0.140163
0.140157
0.140149
0.140139
0.140132
0.140125
0.140119
0.140112
0.140107
0.140101
0.140097
0.140093
0.140089
0.140085
0.140081
0.140078
0.140075
0.140072
0.140069
0.140066
0.140062
0.140057
0.14005
0.140043
0.140034
0.140025
0.140014
0.140001
0.139986
0.139968
0.139947
0.139921
0.139892
0.139852
0.139822
0.140186
0.140185
0.140188
0.140192
0.140195
0.140197
0.1402
0.140202
0.140204
0.140206
0.140207
0.140208
0.140209
0.140209
0.140209
0.140209
0.140209
0.140208
0.140207
0.140205
0.140203
0.1402
0.140198
0.140194
0.14019
0.140185
0.140179
0.140172
0.140163
0.140151
0.140136
0.140118
0.140096
0.140069
0.140038
0.14
0.139961
0.139905
0.139844
0.140185
0.140185
0.140182
0.140174
0.140168
0.140163
0.140157
0.140149
0.140143
0.140137
0.140131
0.140125
0.140121
0.140116
0.140112
0.140109
0.140106
0.140103
0.140101
0.140098
0.140096
0.140095
0.140093
0.140091
0.140088
0.140083
0.140078
0.140072
0.140066
0.140059
0.140051
0.140042
0.140031
0.140018
0.140002
0.139981
0.139956
0.139921
0.139896
0.14019
0.14019
0.140192
0.140196
0.140199
0.140201
0.140204
0.140206
0.140208
0.14021
0.140212
0.140213
0.140214
0.140215
0.140216
0.140216
0.140216
0.140216
0.140216
0.140215
0.140214
0.140213
0.140211
0.14021
0.140207
0.140204
0.140201
0.140197
0.140192
0.140185
0.140177
0.140167
0.140153
0.140135
0.140112
0.140082
0.140047
0.139996
0.139939
0.140188
0.140188
0.140184
0.140177
0.140171
0.140166
0.140161
0.140155
0.14015
0.140145
0.14014
0.140135
0.140131
0.140128
0.140125
0.140122
0.14012
0.140117
0.140115
0.140113
0.140111
0.14011
0.140108
0.140106
0.140103
0.1401
0.140096
0.140091
0.140086
0.140081
0.140076
0.140069
0.140062
0.140053
0.140042
0.140028
0.140012
0.139982
0.139964
0.140192
0.140193
0.140195
0.140199
0.140201