/*--------------------------------*- C++ -*----------------------------------*\
  =========                 |
  \\      /  F ield         | OpenFOAM: The Open Source CFD Toolbox
   \\    /   O peration     | Website:  https://openfoam.org
    \\  /    A nd           | Version:  7
     \\/     M anipulation  |
\*---------------------------------------------------------------------------*/
FoamFile
{
    version     2.0;
    format      ascii;
    class       volScalarField;
    location    "250";
    object      p;
}
// * * * * * * * * * * * * * * * * * * * * * * * * * * * * * * * * * * * * * //

dimensions      [0 2 -2 0 0 0 0];

internalField   nonuniform List<scalar> 
10720
(
-89.6
-163.608
-250.957
-336.375
-414.769
-494.691
-565.09
-623.82
-674.751
-714.282
-744.392
-766.384
-781.056
-789.612
-792.5
-789.26
-780.815
-765.824
-745.431
-718.259
-685.341
-645.871
-602.08
-554.875
-507.755
-465.805
-428.012
-390.789
-353.857
-317.438
-281.352
-245.459
-209.654
-173.71
-137.372
-99.5363
-59.8395
-12.3119
35.4505
-14.6981
53.3508
126.773
195.807
255.264
301.162
329.835
340.854
340.175
329.222
309.44
286.351
262.888
240.076
218.602
198.338
179.378
161.312
143.889
126.614
109.444
92.0591
74.5527
57.3231
42.2641
30.4438
20.8123
12.9826
6.95788
2.7952
0.397589
-0.34084
0.500452
2.92491
6.94398
12.9752
21.5724
36.4597
61.5462
23.7745
-32.5646
-95.481
-162.105
-230.362
-300.076
-367.574
-430.755
-488.996
-540.518
-585.003
-622.445
-652.909
-676.463
-693.029
-702.321
-704.942
-700.463
-689.43
-671.227
-646.413
-614.713
-577.81
-536.849
-494.914
-456.321
-420.613
-384.996
-349.302
-313.847
-278.54
-243.278
-207.984
-172.447
-136.424
-98.8301
-59.3191
-11.8815
35.1256
74.5689
123.17
171.874
219.209
261.289
295.507
318.87
330.118
330.614
321.612
305.694
286.239
265.376
244.216
223.521
203.556
184.488
166.165
148.411
130.909
113.568
96.1783
78.8249
61.9154
46.9242
34.7663
24.7218
16.4652
10.0192
5.43896
2.65419
1.56738
2.09666
4.24454
8.03225
13.8812
22.3358
37.134
61.2065
40.2166
-10.209
-66.7652
-129.019
-193.383
-259.176
-324.806
-387.574
-445.903
-498.806
-545.048
-584.321
-616.439
-641.344
-659.231
-670.301
-674.786
-672.499
-663.632
-647.952
-625.759
-597.108
-563.258
-525.49
-486.357
-449.396
-414.718
-380.164
-345.413
-310.745
-276.098
-241.376
-206.516
-171.324
-135.57
-98.1875
-58.8496
-11.6039
34.8744
85.823
130.355
174.837
217.251
254.216
284.121
304.925
315.937
317.868
311.566
298.927
282.239
263.346
243.524
223.651
204.189
185.374
167.201
149.553
132.2
115.022
97.8794
80.8366
64.2662
49.3376
36.9457
26.6838
18.2405
11.6176
6.86068
3.90936
2.66622
3.05127
5.06829
8.74686
14.5095
22.8978
37.5731
60.6609
65.1361
22.7084
-25.5971
-78.6282
-134.183
-192.187
-250.969
-308.701
-364.049
-415.873
-463.036
-504.868
-540.886
-570.801
-594.392
-611.658
-622.359
-626.221
-623.193
-613.153
-596.275
-572.767
-543.646
-510.241
-474.755
-440.211
-407.193
-374.114
-340.597
-306.926
-273.107
-239.064
-204.753
-170.001
-134.592
-97.4888
-58.3888
-11.4615
34.4774
103.202
139.914
176.855
212.711
244.362
270.569
289.501
300.399
303.551
299.486
289.662
275.784
259.342
241.505
223.121
204.71
186.575
168.832
151.449
134.296
117.283
100.338
83.534
67.2206
52.359
39.7926
29.3197
20.6543
13.7914
8.78171
5.57712
4.09172
4.25485
6.07579
9.59168
15.224
23.5021
37.979
60.0862
73.3194
35.6148
-7.52583
-55.2022
-105.291
-158.193
-212.508
-266.589
-319.406
-369.802
-416.627
-459.088
-496.513
-528.374
-554.286
-574.012
-587.189
-593.702
-593.417
-586.321
-572.524
-552.306
-526.502
-496.368
-463.803
-431.326
-399.746
-367.949
-335.551
-302.822
-269.815
-236.468
-202.742
-168.477
-133.467
-96.7023
-57.9086
-11.406
33.8434
107.24
139.778
172.606
204.466
232.61
256.203
273.765
284.559
288.654
286.452
279.056
267.745
253.675
237.846
221.054
203.832
186.542
169.385
152.416
135.592
118.866
102.214
85.7215
69.7169
54.9979
42.3361
31.6921
22.8378
15.7703
10.5442
7.12443
5.43547
5.41256
7.06663
10.44
15.9523
24.1154
38.3642
59.4757
78.5763
45.1549
6.70486
-35.7754
-80.4325
-127.974
-177.098
-226.489
-275.394
-322.753
-367.581
-409.11
-446.601
-479.414
-507.055
-529.12
-545.238
-555.159
-558.608
-555.44
-545.655
-529.486
-507.612
-481.18
-451.844
-421.731
-391.814
-361.42
-330.226
-298.496
-266.332
-233.702
-200.583
-166.828
-132.246
-95.8614
-57.4319
-11.4656
32.9797
108.641
137.363
166.536
195.045
220.356
241.859
258.324
268.979
273.76
273.041
267.65
258.577
246.717
232.894
217.811
201.971
185.748
169.39
153.019
136.663
120.328
104.034
87.885
72.1943
57.6413
44.9277
34.139
25.1149
17.8547
12.4157
8.77699
6.87395
6.64958
8.11988
11.334
16.7089
24.7361
38.7114
58.8118
79.763
49.6126
14.8281
-23.6319
-63.9861
-107.181
-152.051
-197.448
-242.863
-287.347
-330.048
-370.269
-407.248
-440.305
-468.867
-492.417
-510.478
-522.655
-528.615
-528.171
-521.31
-508.254
-489.572
-466.285
-439.816
-411.936
-383.663
-354.667
-324.693
-293.985
-262.687
-230.794
-198.3
-165.077
-130.949
-94.98
-56.9708
-11.6509
31.8988
106.914
132.768
159.158
185.049
208.122
227.941
243.488
253.957
259.227
259.667
255.912
248.743
238.863
226.934
213.551
199.158
184.111
168.684
153.041
137.267
121.417
105.552
89.7961
74.4511
60.1075
47.405
36.5184
27.356
19.9253
14.2883
10.4399
8.32875
7.90626
9.19391
12.247
17.4773
25.3537
39.0121
58.1005
79.0921
51.7181
20.0652
-14.9052
-51.5032
-90.8081
-131.747
-173.318
-215.189
-256.55
-296.66
-334.936
-370.672
-403.198
-431.909
-456.235
-475.622
-489.645
-497.922
-500.172
-496.284
-486.394
-470.949
-450.817
-427.223
-401.652
-375.125
-347.594
-318.893
-289.257
-258.864
-227.743
-195.902
-163.235
-129.586
-94.0642
-56.526
-11.9539
30.6142
103.78
127.232
151.3
175.022
196.242
214.658
229.399
239.642
245.249
246.577
244.137
238.561
230.411
220.214
208.462
195.524
181.725
167.333
152.535
137.452
122.181
106.818
91.5061
76.5384
62.4436
49.8066
38.8644
29.5919
22.011
16.1901
12.1401
9.82397
9.20247
10.3033
13.188
18.2616
25.9683
39.2657
57.3472
77.0543
51.9913
22.9732
-9.06153
-42.4841
-78.4404
-115.958
-154.133
-192.778
-231.185
-268.73
-304.941
-339.175
-370.804
-399.234
-423.869
-444.118
-459.492
-469.553
-473.942
-472.482
-465.263
-452.638
-435.339
-414.406
-391.069
-366.298
-340.246
-312.844
-284.313
-254.86
-224.544
-193.39
-161.308
-128.165
-93.1208
-56.0948
-12.3592
29.1499
99.6909
121.159
143.295
165.2
184.851
202.081
216.099
226.085
231.914
233.918
232.527
228.269
221.605
212.957
202.721
191.198
178.666
165.369
151.495
137.19
122.579
107.785
92.9682
78.4162
64.6119
52.095
41.144
31.7952
24.0893
18.1027
13.8625
11.3475
10.5289
11.441
14.1521
19.0581
26.576
39.4709
56.5526
74.2303
51.1492
24.4037
-5.08629
-35.7567
-68.7804
-103.252
-138.356
-174.01
-209.588
-244.58
-278.604
-311.091
-341.489
-369.232
-393.721
-414.368
-430.645
-442.091
-448.306
-449.025
-444.267
-434.279
-419.661
-401.278
-380.144
-357.156
-332.614
-306.539
-279.148
-250.67
-221.193
-190.757
-159.294
-126.688
-92.1564
-55.678
-12.8564
27.538
95.1131
114.89
135.378
155.724
174.029
190.229
203.59
213.298
219.256
221.769
221.212
218.036
212.633
205.345
196.491
186.307
175.021
162.843
149.948
136.49
122.608
108.445
94.1742
80.0775
66.6056
54.2613
43.3496
33.9597
26.1555
20.0227
15.6052
12.8984
11.8852
12.6067
15.1384
19.865
27.1749
39.6275
55.7187
70.9214
49.5527
24.7789
-2.50041
-30.7732
-61.227
-93.0099
-125.379
-158.312
-191.266
-223.824
-255.69
-286.361
-315.358
-342.164
-366.214
-386.924
-403.76
-416.22
-423.897
-426.436
-423.799
-416.152
-403.967
-387.957
-368.945
-347.734
-324.714
-299.984
-273.764
-246.292
-217.685
-188.001
-157.189
-125.156
-91.1739
-55.2799
-13.4396
25.8031
90.2881
108.611
127.672
146.667
163.798
179.087
191.841
201.262
207.277
210.169
210.269
207.979
203.638
197.53
189.915
180.974
170.884
159.817
147.928
135.362
122.264
108.787
95.1088
81.5064
68.4087
56.288
45.4639
36.0706
28.1971
21.9404
17.3607
14.4711
13.2673
13.7974
16.1447
20.6802
27.7624
39.7359
54.8488
67.3488
47.4814
24.4407
-0.893599
-27.0609
-55.2428
-84.6321
-114.544
-145.006
-175.537
-205.795
-235.556
-264.387
-291.881
-317.572
-340.937
-361.425
-378.505
-391.657
-400.478
-404.549
-403.767
-398.218
-388.262
-374.468
-357.498
-338.048
-316.556
-293.187
-268.161
-241.725
-214.02
-185.12
-154.992
-123.566
-90.1749
-54.9046
-14.1072
23.9605
85.3905
102.443
120.255
138.059
154.157
168.628
180.815
189.946
195.96
199.127
199.745
198.177
194.726
189.633
183.116
175.307
166.343
156.357
145.475
133.827
121.553
108.806
95.7631
82.6942
70.0108
58.162
47.4737
38.1162
30.2043
23.8476
19.1229
16.061
14.6719
15.0107
17.1686
21.5011
28.3362
39.7972
53.946
63.6582
45.1158
23.6121
0.00180016
-24.3015
-50.464
-77.7179
-105.422
-133.646
-161.961
-190.075
-217.83
-244.854
-270.805
-295.279
-317.799
-337.852
-354.928
-368.503
-378.177
-383.499
-384.294
-380.586
-372.635
-360.883
-345.851
-328.126
-308.157
-286.155
-262.343
-236.97
-210.196
-182.113
-152.703
-121.919
-89.1601
-54.5552
-14.8557
22.019
80.5242
96.4612
113.163
129.905
145.082
158.813
170.469
179.308
185.28
188.641
189.665
188.683
185.974
181.75
176.193
169.406
161.484
152.53
142.637
131.914
120.488
108.503
96.1309
83.6318
71.4018
59.8703
49.3648
40.0834
32.1653
25.7347
20.884
17.6623
16.0946
16.243
18.2071
22.3253
28.8939
39.8121
53.0139
59.9469
42.5854
22.4563
0.386967
-22.2531
-46.6097
-71.9502
-97.6663
-123.863
-150.149
-176.276
-202.138
-227.417
-251.828
-275.03
-296.596
-316.05
-332.916
-346.683
-356.951
-363.27
-365.392
-363.287
-357.129
-347.251
-334.046
-317.996
-299.535
-278.9
-256.315
-232.028
-206.214
-178.977
-150.32
-120.216
-88.1298
-54.2348
-15.6809
19.9866
75.7631
90.7043
106.415
122.2
136.55
149.601
160.756
169.309
175.205
178.697
180.036
179.529
177.438
173.953
169.233
163.355
156.388
148.403
139.465
129.657
119.086
107.885
96.2122
84.3147
72.5736
61.4019
51.1244
41.9596
34.0692
27.592
22.6362
19.2688
17.5305
17.4907
19.2572
23.1498
29.4334
39.7829
52.056
56.28
39.9808
21.089
0.40711
-20.7408
-43.4747
-67.0892
-91.0128
-115.368
-139.795
-164.089
-188.178
-211.796
-234.708
-256.62
-277.162
-295.903
-312.401
-326.172
-336.815
-343.898
-347.113
-346.383
-341.81
-333.631
-322.132
-307.694
-290.711
-271.435
-250.085
-226.904
-202.073
-175.713
-147.842
-118.455
-87.0841
-53.9435
-16.5789
17.8725
71.1523
85.1982
100.013
114.933
128.53
140.954
151.637
159.905
165.703
169.275
170.857
170.734
169.156
166.299
162.303
157.231
151.128
144.041
136.01
127.091
117.372
106.964
96.0109
84.7408
73.5198
62.747
52.7405
43.7324
35.9043
29.4093
24.371
20.8737
18.9743
18.7495
20.3153
23.9718
29.9522
39.7114
51.0766
52.7015
37.3658
19.5947
0.16989
-19.6317
-40.8968
-62.9489
-85.2484
-107.928
-130.656
-153.261
-175.702
-197.748
-219.212
-239.849
-259.333
-277.282
-293.292
-306.911
-317.739
-325.381
-329.478
-329.911
-326.723
-320.074
-310.154
-297.252
-281.711
-263.777
-243.663
-221.601
-197.777
-172.322
-145.27
-116.636
-86.0231
-53.6816
-17.5431
15.6858
66.7192
79.9549
93.9543
108.085
120.993
132.834
143.073
151.06
156.742
160.355
162.121
162.307
161.154
158.828
155.458
151.093
145.767
139.504
132.323
124.258
115.373
105.757
95.5334
84.911
74.2381
63.8984
54.2025
45.3903
37.6591
31.1762
26.0792
22.4694
20.4198
20.0145
21.3773
24.7879
30.4485
39.6003
50.0799
49.2421
34.7832
18.0332
-0.245134
-18.8253
-38.7546
-59.3886
-80.2099
-101.361
-122.538
-143.589
-164.495
-185.067
-205.149
-224.541
-242.96
-260.069
-275.503
-288.845
-299.707
-307.723
-312.511
-313.911
-311.92
-306.632
-298.161
-286.709
-272.561
-255.945
-237.06
-216.127
-193.33
-168.806
-142.604
-114.761
-84.9469
-53.4475
-18.5665
13.4359
62.4796
74.9785
88.2312
101.635
113.91
125.207
135.024
142.738
148.289
151.913
153.815
154.249
153.449
151.572
148.739
144.995
140.361
134.847
128.455
121.199
113.12
104.284
94.7922
84.8301
74.7267
64.8504
55.5013
46.9223
39.3226
32.882
27.7516
24.0481
21.8606
21.2806
22.4389
25.5949
30.9204
39.4523
49.0702
45.9204
32.2638
16.4524
-0.779323
-18.2422
-36.9549
-56.2929
-75.7668
-95.5213
-115.275
-134.894
-154.383
-173.574
-192.349
-210.54
-227.904
-244.149
-258.944
-271.912
-282.681
-290.913
-296.222
-298.412
-297.441
-293.354
-286.2
-276.105
-263.292
-247.96
-230.292
-210.491
-188.735
-165.165
-139.845
-112.829
-83.8545
-53.2399
-19.6409
11.1351
58.4416
70.2654
82.8312
95.5653
107.252
118.04
127.456
134.901
140.315
143.925
145.925
146.557
146.049
144.552
142.181
138.977
134.956
130.118
124.452
117.955
110.645
102.569
93.8024
84.5062
74.988
65.5999
56.6295
48.3185
40.884
34.5163
29.3782
25.6012
23.2893
22.5418
23.4954
26.3893
31.366
39.2707
48.0529
42.7471
29.8297
14.8812
-1.3854
-17.8263
-35.4218
-53.5735
-71.8121
-90.2886
-108.735
-127.038
-145.212
-163.118
-180.659
-197.701
-214.035
-229.408
-243.526
-256.047
-266.625
-274.937
-280.619
-283.439
-283.324
-280.282
-274.315
-265.478
-253.933
-239.846
-223.376
-204.703
-184
-161.406
-136.996
-110.841
-82.7458
-53.0562
-20.7572
8.79482
54.6082
65.8098
77.7401
89.8532
100.99
111.302
120.336
127.52
132.789
136.366
138.435
139.225
138.957
137.781
135.806
133.072
129.593
125.361
120.358
114.564
107.982
100.637
92.5806
83.9494
75.0271
66.1464
57.5819
49.5706
42.3334
36.0685
30.9494
27.12
24.6984
23.7919
24.5415
27.1674
31.7839
39.0587
47.0328
39.7288
27.4951
13.3443
-2.03156
-17.5305
-34.099
-51.1587
-68.2645
-85.5663
-102.812
-119.898
-136.857
-153.564
-169.947
-185.897
-201.236
-215.745
-229.166
-241.189
-251.494
-259.777
-265.701
-269.007
-269.599
-267.458
-262.549
-254.868
-244.52
-231.629
-216.329
-198.778
-179.133
-157.532
-134.058
-108.798
-81.6197
-52.8933
-21.9061
6.42751
50.9779
61.6041
72.9442
84.4794
95.102
104.962
113.635
120.564
125.686
129.215
131.328
132.242
132.174
131.269
129.633
127.308
124.305
120.614
116.21
111.064
105.164
98.5152
91.1482
83.174
74.8506
66.4909
58.3549
50.6714
43.6616
37.529
32.4551
28.5952
26.0799
25.0243
25.5721
27.9255
32.1727
38.8198
46.0147
36.8673
25.2684
11.8588
-2.69122
-17.3203
-32.9398
-48.9933
-65.0552
-81.2748
-97.4131
-113.38
-129.213
-144.807
-160.105
-175.021
-189.406
-203.068
-215.783
-227.271
-237.243
-245.406
-251.461
-255.127
-256.292
-254.919
-250.942
-244.315
-235.085
-223.336
-209.174
-192.73
-174.145
-153.55
-131.036
-106.702
-80.4747
-52.7465
-23.0769
4.04671
47.5483
57.6391
68.4286
79.4236
89.5637
98.9983
107.326
114.008
118.98
122.45
124.588
125.599
125.695
125.019
123.674
121.703
119.118
115.908
112.044
107.49
102.223
96.2318
89.5274
82.1953
74.4679
66.6374
58.9471
51.6156
44.8606
38.8881
33.8857
30.0177
27.4255
26.2318
26.5813
28.66
32.5314
38.5575
45.0037
34.1627
23.1551
10.4354
-3.34582
-17.168
-31.9086
-47.0307
-62.1286
-77.3473
-92.4642
-107.396
-122.188
-136.747
-151.031
-164.974
-178.447
-191.288
-203.299
-214.232
-223.824
-231.799
-237.889
-241.805
-243.423
-242.693
-239.532
-233.855
-225.662
-214.997
-201.933
-186.576
-169.046
-149.467
-127.932
-104.553
-79.3093
-52.6112
-24.2586
1.66664
44.3135
53.9047
64.1787
74.6672
84.3531
93.3853
101.384
107.825
112.647
116.051
118.197
119.283
119.515
119.032
117.937
116.273
114.054
111.27
107.89
103.874
99.1897
93.8142
87.7402
81.0301
73.8908
66.5919
59.3593
52.3994
45.9237
40.1374
35.2317
31.378
28.7265
27.4069
27.5634
29.3668
32.8588
38.2752
44.005
31.6129
21.1572
9.0827
-3.98094
-17.0542
-30.9767
-45.235
-59.4395
-73.7334
-87.9036
-101.878
-115.705
-129.302
-142.64
-155.668
-168.276
-180.326
-191.646
-202.014
-211.193
-218.924
-224.969
-229.042
-231.008
-230.808
-228.351
-223.524
-216.285
-206.639
-194.629
-180.333
-163.851
-145.292
-124.753
-102.354
-78.1216
-52.4816
-25.4408
-0.699409
41.2665
50.3917
60.1818
70.193
79.4509
88.1015
95.7848
101.993
106.665
109.997
112.14
113.282
113.626
113.307
112.425
111.028
109.129
106.721
103.773
100.243
96.0929
91.2895
85.8106
79.698
73.133
66.3625
59.5946
53.0211
46.8454
41.2691
36.4844
32.6671
29.9745
28.542
28.5122
30.0423
33.1542
37.9762
43.0232
29.2141
19.2755
7.80535
-4.58662
-16.9609
-30.1217
-43.5762
-56.9514
-70.3865
-83.6813
-96.7683
-109.7
-122.403
-134.858
-147.027
-158.817
-170.11
-180.754
-190.556
-199.301
-206.748
-212.683
-216.833
-219.055
-219.285
-217.428
-213.355
-206.987
-198.295
-187.29
-174.024
-158.573
-141.035
-121.504
-100.105
-76.9097
-52.3508
-26.6114
-3.03675
38.4012
47.0884
56.4239
65.9855
74.8386
83.1259
90.5076
96.4909
101.015
104.27
106.4
107.584
108.019
107.839
107.141
105.974
104.356
102.279
99.7149
96.6223
92.9586
88.6831
83.7621
78.2183
72.2093
65.9589
59.657
53.4808
47.6221
42.2766
37.6353
33.8761
31.1606
29.6293
29.4218
30.6825
33.417
37.6635
42.0628
26.9612
17.5089
6.60646
-5.15575
-16.8758
-29.3253
-42.0298
-54.6328
-67.2705
-79.7518
-92.0151
-104.115
-115.987
-127.619
-138.983
-150.001
-160.573
-170.564
-179.806
-188.104
-195.238
-201.013
-205.172
-207.569
-208.14
-206.791
-203.378
-197.799
-189.992
-179.94
-167.666
-153.229
-136.707
-118.19
-97.81
-75.6704
-52.2123
-27.7588
-5.33139
35.7097
43.9855
52.8918
62.0281
70.4975
78.4393
85.5329
91.2992
95.6776
98.8529
100.962
102.176
102.686
102.623
102.083
101.117
99.743
97.9576
95.7343
93.0333
89.8101
86.0187
81.6166
76.6107
71.1353
65.3926
59.5536
53.7801
48.2513
43.1548
38.6773
34.9965
32.2767
30.6611
30.2858
31.2837
33.6465
37.34
41.1276
24.8496
15.8553
5.48702
-5.68341
-16.7903
-28.5739
-40.5774
-52.4602
-64.3549
-76.0791
-87.5774
-98.9037
-110.002
-120.867
-131.478
-141.769
-151.655
-161.02
-169.712
-177.559
-184.361
-189.934
-194.049
-196.555
-197.387
-196.459
-193.622
-188.751
-181.76
-172.605
-161.286
-147.835
-132.319
-114.821
-95.4697
-74.4024
-52.0575
-28.871
-7.56926
33.1847
41.0724
49.573
58.306
66.4116
74.0246
80.8416
86.3989
90.6348
93.7287
95.8107
97.0443
97.6157
97.6525
97.2486
96.4559
95.2958
93.7667
91.8454
89.4939
86.6679
83.318
79.3954
74.894
69.9274
64.6757
59.2921
53.9225
48.7325
43.8994
39.6038
36.0208
33.3146
31.63
31.0983
31.8421
33.8421
37.0081
40.2214
22.8738
14.3112
4.44731
-6.16607
-16.6968
-27.8555
-39.2028
-50.4125
-61.6137
-72.6322
-83.4184
-94.0253
-104.404
-114.553
-124.459
-134.067
-143.303
-152.068
-160.227
-167.626
-174.081
-179.425
-183.451
-186.007
-187.033
-186.451
-184.11
-179.871
-173.626
-165.311
-154.902
-142.412
-127.886
-111.402
-93.0887
-73.1022
-51.8791
-29.9381
-9.73704
30.8182
38.3393
46.4558
54.8067
62.566
69.8661
76.4179
81.773
85.8697
88.8815
90.9321
92.1776
92.7986
92.9197
92.6334
91.9916
91.0183
89.7144
88.0598
86.0194
83.5498
80.6008
77.119
73.0883
68.6026
63.8218
58.8818
53.9131
49.0666
44.508
40.4096
36.9418
34.2666
32.5285
31.8532
32.3541
34.0034
36.6696
39.3467
21.0279
12.8736
3.48558
-6.60139
-16.5905
-27.1617
-37.893
-48.4734
-59.026
-69.3863
-79.5084
-89.4458
-99.1526
-108.635
-117.882
-126.848
-135.471
-143.664
-151.307
-158.263
-164.367
-169.46
-173.363
-175.922
-177.085
-176.781
-174.863
-171.183
-165.618
-158.084
-148.539
-136.974
-123.421
-107.943
-90.6685
-71.768
-51.6702
-30.9479
-11.8219
28.6023
35.7767
43.5294
51.5167
58.9468
65.9483
72.2456
77.4058
81.3668
84.2965
86.3125
87.5634
88.2249
88.4176
88.2323
87.7218
86.9116
85.8053
84.3861
82.6217
80.471
77.8846
74.8061
71.211
67.1769
62.8445
58.3331
53.7581
49.256
44.9794
41.0908
37.7536
35.1259
33.3499
32.5451
32.8161
34.1296
36.3264
38.506
19.3059
11.538
2.60057
-6.98892
-16.4676
-26.4861
-36.6383
-46.6281
-56.5737
-66.3189
-75.8206
-85.1335
-94.2151
-103.074
-111.705
-120.069
-128.114
-135.764
-142.912
-149.435
-155.186
-160.016
-163.767
-166.293
-167.543
-167.458
-165.899
-162.71
-157.76
-150.95
-142.22
-131.544
-118.936
-104.454
-88.2132
-70.3973
-51.4206
-31.8907
-13.8108
26.5298
33.3754
40.7825
48.4238
55.5401
62.2565
68.3101
73.282
77.1113
79.9594
81.9384
83.1896
83.8834
84.1373
84.039
83.6426
82.9749
82.042
80.8302
79.3106
77.4449
75.1845
72.4727
69.2791
65.6662
61.7574
57.6569
53.4654
49.3046
45.314
41.6445
38.4515
35.8864
34.0878
33.1685
33.225
34.2205
35.9792
37.7004
17.7021
10.3003
1.79005
-7.32887
-16.3256
-25.8225
-35.4299
-44.8647
-54.2411
-63.4104
-72.333
-81.0622
-89.5603
-97.8375
-105.893
-113.693
-121.194
-128.328
-135.003
-141.108
-146.509
-151.068
-154.648
-157.109
-158.406
-158.491
-157.231
-154.471
-150.074
-143.931
-135.966
-126.139
-114.45
-100.942
-85.7268
-68.9878
-51.1247
-32.7556
-15.6925
24.5932
31.1264
38.2052
45.5171
52.3339
58.7777
64.5977
69.3881
73.0894
75.8568
77.797
79.0445
79.7637
80.0697
80.0469
79.75
79.2071
78.426
77.3966
76.0936
74.4812
72.5133
70.1339
67.3081
64.086
60.5749
56.8649
53.0433
49.2176
45.5134
42.0697
39.0315
36.5428
34.7367
33.7187
33.5775
34.2751
35.6288
36.9305
16.2104
9.15629
1.05111
-7.62167
-16.1629
-25.1675
-34.2613
-43.1743
-52.0164
-60.6463
-69.0267
-77.2105
-85.1636
-92.8973
-100.414
-107.686
-114.676
-121.324
-127.547
-133.248
-138.306
-142.592
-145.988
-148.36
-149.671
-149.882
-148.87
-146.483
-142.581
-137.048
-129.798
-120.778
-109.974
-97.419
-83.2129
-67.5384
-50.7748
-33.5344
-17.4577
22.7852
29.0217
35.7878
42.7857
49.3164
55.4996
61.095
65.7113
69.2885
71.9765
73.8764
75.1167
75.8561
76.206
76.2486
76.0383
75.6046
74.9567
74.0878
72.9759
71.5885
69.8822
67.8026
65.3122
62.4505
59.3102
55.9688
52.5012
49.0011
45.5807
42.3661
39.4914
37.0913
35.2919
34.1914
33.8708
34.2927
35.2752
36.1961
14.8251
8.10122
0.380961
-7.86867
-15.9789
-24.5181
-33.1273
-41.5494
-49.8894
-58.0128
-65.8856
-73.5591
-81.0026
-88.2283
-95.2421
-102.02
-108.529
-114.717
-120.513
-125.827
-130.55
-134.565
-137.768
-140.034
-141.332
-141.633
-140.824
-138.759
-135.297
-130.321
-123.737
-115.48
-105.524
-93.894
-80.6765
-66.0482
-50.3645
-34.219
-19.0978
21.0989
27.0533
33.5214
40.2192
46.4768
52.4104
57.7903
62.2389
65.6957
68.306
70.1652
71.3958
72.1506
72.5375
72.6366
72.5021
72.1635
71.6327
70.9048
69.9613
68.7732
67.3001
65.49
63.3043
60.773
57.9764
54.9805
51.8488
48.6624
45.5201
42.5352
39.83
37.5287
35.7495
34.583
34.1025
34.2725
34.9179
35.4961
13.5405
7.13063
-0.22355
-8.0714
-15.7733
-23.872
-32.0234
-39.9823
-47.8499
-55.4976
-62.8949
-70.0908
-77.0576
-83.8091
-90.3518
-96.6663
-102.724
-108.481
-113.871
-118.815
-123.216
-126.964
-129.969
-132.117
-133.382
-133.742
-133.098
-131.309
-128.239
-123.768
-117.8
-110.26
-101.116
-90.3775
-78.1226
-64.5161
-49.8888
-34.8022
-20.6048
19.5276
25.2133
31.3972
37.8085
43.8048
49.4995
54.6727
58.9591
62.2999
64.8342
66.6522
67.8706
68.6368
69.0554
69.2033
69.1346
68.8796
68.4508
67.847
67.0518
66.0399
64.7742
63.2055
61.2951
59.0656
56.5855
53.9114
51.0962
48.2093
45.337
42.5797
40.0474
37.8536
36.1069
34.8906
34.2702
34.2135
34.5561
34.8287
12.3508
6.24009
-0.765713
-8.23168
-15.5463
-23.228
-30.9464
-38.4685
-45.8906
-53.0914
-60.0421
-66.7905
-73.3112
-79.619
-85.7219
-91.603
-97.2385
-102.589
-107.596
-112.189
-116.279
-119.768
-122.574
-124.595
-125.811
-126.207
-125.694
-124.141
-121.418
-117.405
-112.004
-105.137
-96.7612
-86.8795
-75.5562
-62.9433
-49.3426
-35.2784
-21.9733
18.0649
23.4945
29.4071
35.5445
41.2908
46.7565
51.7309
55.8616
59.0899
61.5497
63.3266
64.5311
65.3053
65.7503
65.9407
65.9294
65.7472
65.4083
64.9129
64.2482
63.3918
62.3098
60.9567
59.2943
57.339
55.1493
52.7727
50.2535
47.6504
45.0377
42.5033
40.1451
38.0653
36.3623
35.1122
34.3724
34.1147
34.1885
34.1915
11.2511
5.42509
-1.24885
-8.35163
-15.2987
-22.585
-29.8939
-37.0033
-44.0059
-50.7859
-57.3173
-63.6462
-69.7494
-75.6419
-81.333
-86.8087
-92.0484
-97.0177
-101.664
-105.924
-109.717
-112.956
-115.565
-117.456
-118.61
-119.023
-118.614
-117.262
-114.843
-111.243
-106.363
-100.123
-92.4743
-83.4102
-72.9831
-61.3303
-48.7237
-35.6436
-23.1983
16.7044
21.8897
27.5432
33.4185
38.9254
44.1716
48.9551
52.9358
56.0554
58.4424
60.1784
61.3674
62.1469
62.6143
62.8411
62.8797
62.7612
62.5009
62.1005
61.5503
60.8306
59.9113
58.7501
57.3102
55.603
53.6779
51.5751
49.3308
46.9944
44.6291
42.311
40.126
38.1647
36.5153
35.2464
34.4078
33.9752
33.8135
33.5813
10.2357
4.6814
-1.67636
-8.43342
-15.0313
-21.9426
-28.8634
-35.5829
-42.19
-48.5737
-54.7112
-60.6464
-66.3583
-71.8624
-77.1686
-82.265
-87.134
-91.7455
-96.0524
-99.9978
-103.51
-106.507
-108.924
-110.682
-111.768
-112.182
-111.854
-110.673
-108.523
-105.294
-100.891
-95.2335
-88.2671
-79.9788
-70.4095
-59.6791
-48.0301
-35.8944
-24.277
15.4404
20.3925
25.7982
31.4228
36.7004
41.7359
46.3357
50.1717
53.1864
55.5026
57.1979
58.3704
59.1525
59.6381
59.8965
59.9786
59.9159
59.7239
59.4068
58.9569
58.3573
57.5814
56.5907
55.3498
53.8659
52.1811
50.3286
48.3381
46.2505
44.1189
42.0086
39.9938
38.1539
36.5665
35.2929
34.3755
33.7939
33.429
32.9947
9.29988
4.00473
-2.0516
-8.47949
-14.7455
-21.3009
-27.8541
-34.2049
-40.4382
-46.4489
-52.2156
-57.7815
-63.1265
-68.2669
-73.213
-77.955
-82.4773
-86.7536
-90.742
-94.3915
-97.6365
-100.404
-102.634
-104.261
-105.274
-105.677
-105.411
-104.375
-102.461
-99.5659
-95.5984
-90.4784
-84.1503
-76.5948
-67.841
-57.9924
-47.2608
-36.0297
-25.2076
14.2672
18.9964
24.1652
29.5496
34.6075
39.4406
43.8639
47.5605
50.4736
52.7208
54.3756
55.5307
56.3135
56.8142
57.0993
57.2192
57.2048
57.0727
56.8282
56.466
55.9717
55.3222
54.4821
53.4186
52.1352
50.6672
49.0424
47.2847
45.4276
43.5152
41.6027
39.7536
38.036
36.5176
35.2522
34.2754
33.5702
33.033
32.4277
8.43875
3.39103
-2.37782
-8.49196
-14.4426
-20.6598
-26.8646
-32.8664
-38.7466
-44.4057
-49.824
-55.0428
-60.0441
-64.8439
-69.4533
-73.8634
-78.0618
-82.0248
-85.7146
-89.0856
-92.0792
-94.6287
-96.6804
-98.1784
-99.1143
-99.4984
-99.2796
-98.3663
-96.6592
-94.0639
-90.4924
-85.868
-80.1342
-73.2664
-65.2842
-56.2737
-46.4169
-36.0489
-25.9898
13.1791
17.6955
22.6372
27.7917
32.6389
37.2778
41.5311
45.0935
47.9082
50.0883
51.7029
52.8397
53.6211
54.1339
54.442
54.5946
54.6222
54.5421
54.3609
54.0751
53.6732
53.1343
52.4272
51.5212
50.417
49.144
47.7253
46.1798
44.5348
42.8264
41.1007
39.411
37.8153
36.3715
35.1258
34.1078
33.3032
32.6234
31.8761
7.6477
2.8361
-2.65819
-8.4733
-14.1239
-20.0197
-25.894
-31.5655
-37.1124
-42.4398
-47.5301
-52.4229
-57.1018
-61.583
-65.8772
-69.9774
-73.873
-77.543
-80.9536
-84.0637
-86.8204
-89.1639
-91.0458
-92.4188
-93.2781
-93.6374
-93.4534
-92.6442
-91.1192
-88.7917
-85.5796
-81.4103
-76.227
-70.0018
-62.7453
-54.5269
-45.5004
-35.9538
-26.6252
12.1711
16.4839
21.2084
26.1423
30.7874
35.2397
39.3295
42.7622
45.4819
47.5965
49.1713
50.2893
51.0675
51.5897
51.9171
52.0977
52.1619
52.1269
52.0007
51.7814
51.4598
51.018
50.4281
49.6614
48.7166
47.6182
46.3849
45.032
43.5809
42.0611
40.5103
38.9727
37.497
36.1316
34.9159
33.8736
32.9927
32.1977
31.3358
6.92228
2.3363
-2.89601
-8.42592
-13.791
-19.3813
-24.942
-30.3008
-35.5323
-40.547
-45.3283
-49.9149
-54.2915
-58.4741
-62.4738
-66.2845
-69.8974
-73.2938
-76.4436
-79.3097
-81.8444
-83.9942
-85.7155
-86.9689
-87.7525
-88.083
-87.9246
-87.2037
-85.8389
-83.7511
-80.8646
-77.1112
-72.4359
-66.8081
-60.2304
-52.757
-44.5146
-35.7468
-27.1161
11.2381
15.3564
19.8728
24.5951
29.0462
33.3192
37.2514
40.559
43.1867
45.2374
46.7729
47.8713
48.6448
49.174
49.5175
49.7221
49.8177
49.8218
49.7432
49.5817
49.33
48.9729
48.4856
47.8417
47.0384
46.0955
45.0286
43.8492
42.5744
41.2277
39.8394
38.446
37.0871
35.8028
34.6256
33.5743
32.6384
31.7541
30.8025
6.25824
1.88785
-3.09421
-8.35216
-13.4455
-18.7454
-24.0082
-29.0709
-34.0042
-38.7238
-43.2145
-47.5132
-51.6061
-55.5092
-59.2333
-62.7736
-66.1226
-69.2639
-72.1705
-74.8088
-77.1362
-79.1045
-80.6749
-81.8146
-82.5248
-82.8247
-82.6845
-82.0388
-80.8151
-78.9414
-76.3493
-72.9753
-68.7668
-63.6916
-57.7457
-50.9692
-43.4639
-35.4319
-27.4661
10.3757
14.3075
18.6246
23.144
27.4088
31.5093
35.2897
38.4766
41.0151
43.0036
44.5001
45.5784
46.3458
46.8798
47.2365
47.4613
47.5838
47.6216
47.5841
47.4726
47.2815
46.9979
46.6002
46.0645
45.3861
44.5813
43.6627
42.639
41.5235
40.3346
39.0965
37.8383
36.5921
35.3901
34.2587
33.2121
32.2406
31.2905
30.2722
5.65149
1.48723
-3.25581
-8.2543
-13.0888
-18.1126
-23.0926
-27.8747
-32.5263
-36.9672
-41.1841
-45.2122
-49.0391
-52.6802
-56.1468
-59.4347
-62.5376
-65.4412
-68.1212
-70.5474
-72.6816
-74.4803
-75.9098
-76.9425
-77.5827
-77.8512
-77.7236
-77.1422
-76.0428
-74.3608
-72.0344
-69.0053
-65.2241
-60.6577
-55.2968
-49.1692
-42.3534
-35.0144
-27.6808
9.57908
13.3325
17.4585
21.7832
25.869
29.8035
33.4378
36.5079
38.96
40.8876
42.3455
43.4032
44.1633
44.7
45.0672
45.309
45.4544
45.521
45.5188
45.4502
45.3114
45.0916
44.7721
44.3309
43.7626
43.0798
42.2928
41.4082
40.4359
39.3901
38.2898
37.1577
36.0192
34.8997
33.8198
32.7896
31.7999
30.8052
29.741
5.09826
1.13096
-3.38354
-8.13459
-12.7224
-17.4837
-22.1954
-26.7115
-31.0963
-35.2743
-39.2332
-43.0071
-46.5843
-49.9804
-53.2062
-56.2586
-59.1324
-61.8147
-64.2838
-66.5129
-68.4673
-70.1085
-71.4066
-72.3395
-72.9133
-73.1505
-73.0318
-72.506
-71.5163
-70.0056
-67.9187
-65.2026
-61.811
-57.7112
-52.8896
-47.3628
-41.1893
-34.5003
-27.7658
8.84406
12.4267
16.3694
20.5073
24.4212
28.196
31.6892
34.6464
37.0145
38.8827
40.3025
41.3389
42.0904
42.6281
43.0035
43.2594
43.424
43.515
43.5429
43.5112
43.4174
43.2526
43.0008
42.6421
42.1702
41.5949
40.9243
40.1632
39.319
38.4023
37.4275
36.4122
35.3758
34.3378
33.3137
32.3099
31.3173
30.297
29.2054
4.5948
0.815917
-3.48029
-7.99511
-12.3481
-16.8595
-21.3163
-25.5803
-29.7129
-33.6428
-37.3587
-40.8935
-44.2368
-47.4033
-50.4041
-53.2367
-55.897
-58.3735
-60.647
-62.6931
-64.4808
-65.9761
-67.1524
-67.9927
-68.5045
-68.7116
-68.5986
-68.1211
-67.2287
-65.8714
-64
-61.567
-58.5295
-54.8558
-50.5289
-45.556
-39.9783
-33.8968
-27.7282
8.16664
11.5856
15.3526
19.311
23.0596
26.6806
30.0377
32.8858
35.1724
36.9825
38.3644
39.3792
40.121
40.6579
41.0392
41.3064
41.4871
41.5986
41.6521
41.6517
41.5963
41.4788
41.2856
40.9986
40.6108
40.1297
39.5615
38.9098
38.1795
37.3785
36.5176
35.6098
34.6695
33.7112
32.7458
31.7767
30.7942
29.765
28.6624
4.13765
0.538977
-3.54862
-7.83796
-11.9673
-16.2409
-20.4556
-24.4807
-28.3748
-32.0703
-35.5574
-38.8674
-41.9912
-44.943
-47.7338
-50.3615
-52.8232
-55.1085
-57.2003
-59.0768
-60.7105
-62.0708
-63.1348
-63.8894
-64.3438
-64.5224
-64.4135
-63.9781
-63.1723
-61.952
-60.2745
-58.097
-55.3805
-52.0944
-48.2194
-43.7551
-38.7275
-33.2116
-27.5758
7.54293
10.8051
14.4035
18.1895
21.7792
25.2522
28.4779
31.2203
33.4276
35.1808
36.5252
37.5178
38.2489
38.7834
39.1687
39.4448
39.6386
39.7672
39.8421
39.8682
39.8455
39.7685
39.6254
39.4004
39.0859
38.687
38.2086
37.6531
37.0238
36.3261
35.5679
34.7584