/*--------------------------------*- C++ -*----------------------------------*\
  =========                 |
  \\      /  F ield         | OpenFOAM: The Open Source CFD Toolbox
   \\    /   O peration     | Website:  https://openfoam.org
    \\  /    A nd           | Version:  7
     \\/     M anipulation  |
\*---------------------------------------------------------------------------*/
FoamFile
{
    version     2.0;
    format      ascii;
    class       surfaceScalarField;
    location    "250";
    object      phi;
}
// * * * * * * * * * * * * * * * * * * * * * * * * * * * * * * * * * * * * * //

dimensions      [0 3 -1 0 0 0 0];

internalField   nonuniform List<scalar> 
21254
(
-0.241757
0.26127
-0.0195131
0.283234
-0.0219642
0.302034
-0.0188005
0.318782
-0.016748
0.334621
-0.015839
0.347225
-0.012604
0.357144
-0.00991835
0.365185
-0.0080411
0.370428
-0.00524296
0.373947
-0.00351906
0.375995
-0.00204815
0.376401
-0.000406211
0.375526
0.000874857
0.373333
0.00219326
0.369762
0.00357121
0.365104
0.00465762
0.359183
0.00592132
0.352106
0.00707733
0.343737
0.00836819
0.334321
0.00941683
0.323539
0.0107812
0.311976
0.0115636
0.299903
0.012073
0.288631
0.0112721
0.279359
0.00927155
0.271402
0.0079572
0.26363
0.00777168
0.255728
0.00790229
0.247361
0.00836672
0.238443
0.00891839
0.228947
0.00949559
0.218866
0.0100811
0.208135
0.0107316
0.196514
0.0116206
0.183477
0.0130368
0.167966
0.0155114
0.147624
0.0203419
0.117026
0.030599
0.0951802
0.0218487
-0.218658
-0.0230987
-0.194765
-0.0238929
-0.165315
-0.0294498
-0.132936
-0.0323794
-0.0987417
-0.0341942
-0.063329
-0.0354126
-0.0282755
-0.0350536
0.00429674
-0.0325722
0.0338009
-0.0295042
0.0599584
-0.0261574
0.0823322
-0.0223738
0.101342
-0.0190096
0.117338
-0.0159962
0.130686
-0.0133482
0.142106
-0.0114194
0.151931
-0.00982504
0.160643
-0.00871239
0.168481
-0.00783784
0.175758
-0.00727671
0.182599
-0.00684151
0.189178
-0.00657869
0.195486
-0.00630822
0.201456
-0.00597031
0.206463
-0.00500705
0.21032
-0.003857
0.213305
-0.00298489
0.215415
-0.00211
0.216767
-0.00135191
0.217375
-0.00060754
0.217181
0.000193989
0.216089
0.00109137
0.214236
0.00185342
0.211745
0.00249054
0.20868
0.00306497
0.2049
0.00378015
0.199979
0.00492099
0.192736
0.00724306
0.177829
0.0149066
0.155122
0.022708
-0.220632
0.242206
-0.0410867
0.264262
-0.04402
0.287278
-0.0418166
0.308738
-0.0382085
0.329666
-0.0367666
0.349043
-0.0319809
0.36647
-0.0273457
0.382209
-0.0237802
0.395853
-0.0188869
0.407463
-0.0151286
0.417059
-0.0116437
0.42478
-0.00812798
0.43094
-0.00528507
0.435691
-0.0025577
0.438915
0.000346916
0.440296
0.00327749
0.439755
0.00646165
0.43742
0.00941234
0.43279
0.0129982
0.426161
0.0160463
0.417135
0.0198066
0.406013
0.0226862
0.392792
0.0252938
0.378117
0.0259471
0.363258
0.0241303
0.348662
0.0225533
0.334426
0.0220085
0.320769
0.0215586
0.307514
0.0216223
0.294514
0.0219181
0.281563
0.0224465
0.268502
0.0231421
0.255082
0.0241516
0.241091
0.0256114
0.226135
0.0279932
0.209219
0.0324279
0.18907
0.0404905
0.156809
0.0628605
0.113362
0.0652977
-0.198575
-0.0451558
-0.174941
-0.0475274
-0.147265
-0.0571259
-0.117977
-0.0616667
-0.0868618
-0.0653098
-0.0543516
-0.0679229
-0.0219756
-0.0674296
0.00902257
-0.0635703
0.0375124
-0.057994
0.062877
-0.051522
0.0850237
-0.0445205
0.104254
-0.0382397
0.121009
-0.0327513
0.135515
-0.0278547
0.148212
-0.0241157
0.159399
-0.0210121
0.169368
-0.0186815
0.178427
-0.0168974
0.186832
-0.0156812
0.194695
-0.0147044
0.202176
-0.0140601
0.209347
-0.0134791
0.216135
-0.0127579
0.222081
-0.0109529
0.22691
-0.00868639
0.230827
-0.00690171
0.233827
-0.0051106
0.235963
-0.00348765
0.237281
-0.0019254
0.237929
-0.000454059
0.238008
0.00101231
0.237459
0.00240272
0.236152
0.00379755
0.234043
0.0051739
0.231075
0.00674787
0.227004
0.008992
0.221811
0.0124361
0.210886
0.0258317
0.189794
0.0437993
-0.214081
0.235823
-0.0628289
0.257718
-0.0659149
0.281342
-0.0654402
0.302938
-0.0598052
0.323467
-0.0572953
0.343114
-0.0516278
0.360586
-0.0448178
0.376296
-0.0394901
0.3898
-0.0323908
0.401386
-0.0267143
0.411083
-0.0213413
0.419057
-0.0161014
0.425136
-0.011364
0.429799
-0.0072214
0.432796
-0.00265022
0.434868
0.00120566
0.435702
0.00562787
0.435646
0.00946871
0.434368
0.014276
0.431807
0.0186065
0.427849
0.0237655
0.42232
0.0282148
0.415195
0.0324189
0.406569
0.0345727
0.396964
0.0337355
0.386442
0.0330749
0.374895
0.0335556
0.362469
0.0339845
0.349338
0.0347538
0.335598
0.0356577
0.321398
0.0366466
0.306769
0.0377709
0.291655
0.0392659
0.275882
0.041384
0.259063
0.0448122
0.240204
0.0512875
0.218126
0.0625681
0.185153
0.0958336
0.13757
0.112883
-0.192197
-0.0670401
-0.168202
-0.0715226
-0.139485
-0.0858426
-0.10959
-0.0915621
-0.078337
-0.0965624
-0.0458787
-0.100381
-0.0138309
-0.0994774
0.016137
-0.0935382
0.0436946
-0.0855516
0.0686686
-0.0764961
0.0907602
-0.0666121
0.110127
-0.0576069
0.127127
-0.0497512
0.142034
-0.0427612
0.155158
-0.0372397
0.166835
-0.0326896
0.177333
-0.0291785
0.186915
-0.0264803
0.195793
-0.0245587
0.20413
-0.023041
0.21211
-0.022041
0.21975
-0.0211184
0.226956
-0.0199642
0.233428
-0.0174254
0.238881
-0.0141386
0.243415
-0.0114358
0.247088
-0.00878426
0.249933
-0.00633263
0.252014
-0.004006
0.253324
-0.00176384
0.253934
0.000402077
0.253838
0.00249814
0.25306
0.00457604
0.251526
0.00670812
0.249131
0.00914229
0.245492
0.0126315
0.240178
0.0177497
0.229493
0.0365169
0.209474
0.0638179
-0.206487
0.22924
-0.0855821
0.252049
-0.0887239
0.277122
-0.090513
0.3
-0.0826832
0.322164
-0.0794588
0.343396
-0.07286
0.362879
-0.0643005
0.380425
-0.0570366
0.396251
-0.0482164
0.410132
-0.040595
0.422184
-0.0333939
0.432406
-0.0263234
0.44083
-0.0197879
0.447493
-0.0138843
0.452716
-0.00787287
0.456127
-0.00220514
0.457872
0.00388268
0.457708
0.0096324
0.455962
0.0160217
0.452512
0.0220566
0.447505
0.0287724
0.441191
0.0345291
0.433698
0.039912
0.425532
0.042739
0.417123
0.0421442
0.408528
0.0416703
0.399374
0.0427098
0.389511
0.0438473
0.378759
0.0455052
0.366942
0.0474755
0.354053
0.0495351
0.340083
0.0517407
0.325034
0.054315
0.308784
0.0576348
0.291078
0.0625176
0.270973
0.0713925
0.247216
0.0863254
0.212936
0.130114
0.164712
0.161108
-0.184016
-0.0895115
-0.159909
-0.0956298
-0.130657
-0.115094
-0.100619
-0.1216
-0.0692929
-0.127888
-0.0367236
-0.13295
-0.00475184
-0.131449
0.0248429
-0.123133
0.0518913
-0.1126
0.0764643
-0.101069
0.0982223
-0.08837
0.117403
-0.076788
0.134417
-0.0667646
0.149502
-0.0578462
0.162975
-0.0507127
0.17506
-0.0447751
0.186048
-0.0401658
0.196115
-0.0365482
0.205494
-0.0339375
0.214323
-0.0318701
0.222715
-0.0304323
0.230734
-0.0291381
0.238323
-0.0275526
0.245162
-0.0242643
0.25101
-0.0199867
0.255927
-0.0163532
0.259959
-0.0128155
0.263152
-0.00952634
0.265541
-0.00639449
0.267181
-0.00340399
0.268101
-0.000517818
0.268326
0.00227329
0.267854
0.00504778
0.26667
0.00789178
0.264654
0.011158
0.261427
0.0158591
0.256394
0.0227827
0.246208
0.0467024
0.226546
0.0834802
-0.202374
0.225945
-0.109152
0.249639
-0.112418
0.276131
-0.117005
0.29978
-0.106332
0.322973
-0.102652
0.345314
-0.0952013
0.365704
-0.0846902
0.384244
-0.0755766
0.401235
-0.065208
0.41602
-0.0553802
0.428993
-0.0463662
0.440089
-0.0374199
0.449588
-0.0292868
0.457156
-0.0214521
0.462973
-0.0136894
0.467039
-0.00627198
0.469514
0.00140808
0.470436
0.00871082
0.469558
0.0168992
0.467146
0.0244692
0.463052
0.0328664
0.457416
0.0401651
0.450474
0.0468534
0.442625
0.0505888
0.434442
0.0503271
0.426133
0.0499793
0.417551
0.0512911
0.408634
0.0527651
0.399237
0.054902
0.389192
0.05752
0.378252
0.0604758
0.366186
0.0638061
0.352781
0.06772
0.337748
0.0726678
0.320678
0.0795877
0.300692
0.0913782
0.27636
0.110658
0.241367
0.165108
0.193055
0.20942
-0.178861
-0.113025
-0.154048
-0.120442
-0.123556
-0.145586
-0.0926911
-0.152466
-0.0606588
-0.15992
-0.0274758
-0.166133
0.00491682
-0.163842
0.0345639
-0.15278
0.0614319
-0.139468
0.0857501
-0.125387
0.107219
-0.109839
0.126175
-0.0957445
0.143113
-0.0837025
0.158242
-0.0729754
0.171876
-0.0643459
0.184274
-0.0571736
0.195614
-0.0515054
0.206077
-0.0470118
0.215858
-0.0437181
0.225093
-0.0411056
0.233877
-0.0392162
0.24225
-0.0375105
0.250176
-0.0354789
0.257382
-0.0314701
0.263607
-0.0262117
0.268883
-0.0216292
0.273242
-0.0171751
0.276737
-0.0130215
0.279396
-0.00905332
0.281251
-0.0052591
0.282343
-0.00160947
0.282725
0.0018916
0.28239
0.0053825
0.281301
0.00898111
0.279404
0.0130547
0.276309
0.0189544
0.271409
0.0276827
0.261768
0.0563429
0.242773
0.102475
-0.199056
0.223643
-0.13374
0.248668
-0.137442
0.27654
-0.144877
0.301401
-0.131193
0.325615
-0.126866
0.349333
-0.118919
0.370694
-0.106051
0.39052
-0.0954027
0.408499
-0.0831876
0.424517
-0.0713977
0.438802
-0.0606508
0.451163
-0.0497816
0.461825
-0.0399484
0.470763
-0.0303901
0.477836
-0.0207626
0.483361
-0.0117967
0.486956
-0.00218726
0.488717
0.00695038
0.488752
0.0168639
0.486886
0.0263354
0.48317
0.0365821
0.477829
0.0455061
0.471016
0.0536666
0.463152
0.0584519
0.454755
0.0587242
0.446088
0.0586462
0.437107
0.060273
0.427824
0.0620474
0.418245
0.064481
0.408298
0.0674673
0.39791
0.0708639
0.386849
0.074867
0.374845
0.0797245
0.361467
0.086046
0.346099
0.0949549
0.327557
0.109921
0.304222
0.133993
0.269861
0.199469
0.222066
0.257216
-0.174574
-0.137506
-0.148946
-0.146071
-0.117146
-0.177386
-0.0851413
-0.18447
-0.0521119
-0.19295
-0.0180018
-0.200244
0.0150972
-0.196941
0.0450845
-0.182767
0.0720477
-0.166431
0.0962922
-0.149632
0.117581
-0.131127
0.136318
-0.114482
0.153101
-0.100486
0.168186
-0.0880603
0.181878
-0.0780375
0.194433
-0.0697284
0.206011
-0.0630833
0.216803
-0.0578037
0.226934
-0.0538499
0.236533
-0.0507043
0.245689
-0.0483726
0.254425
-0.0462458
0.262685
-0.0437393
0.270286
-0.0390705
0.276898
-0.0328245
0.282514
-0.0272452
0.287218
-0.0218786
0.291004
-0.0168078
0.29392
-0.0119697
0.295996
-0.00733518
0.29727
-0.00288341
0.297768
0.00139398
0.297495
0.00565506
0.296468
0.0100085
0.294536
0.0149865
0.291406
0.0220841
0.286388
0.0327013
0.277033
0.0656978
0.258744
0.120763
-0.197042
0.22296
-0.159658
0.249021
-0.163504
0.278465
-0.174321
0.304606
-0.157334
0.330081
-0.152341
0.354878
-0.143716
0.377416
-0.128589
0.398096
-0.116083
0.417131
-0.102222
0.434093
-0.0883601
0.449214
-0.0757717
0.462634
-0.0632016
0.474218
-0.0515319
0.484028
-0.0402005
0.492128
-0.0288623
0.498336
-0.018005
0.502808
-0.00665887
0.505446
0.00431258
0.506273
0.0160364
0.505227
0.027382
0.502346
0.0394623
0.497695
0.0501572
0.491599
0.0597629
0.484242
0.0658096
0.476133
0.0668331
0.467511
0.0672681
0.458382
0.0694012
0.448782
0.071648
0.438795
0.0744683
0.428388
0.0778735
0.417571
0.0816808
0.406301
0.0861373
0.394447
0.0915783
0.381677
0.0988166
0.367482
0.109149
0.350657
0.126746
0.329368
0.155282
0.297328
0.231509
0.251077
0.303467
-0.171352
-0.163196
-0.144618
-0.172805
-0.111371
-0.210634
-0.078059
-0.217782
-0.0438308
-0.227178
-0.00848046
-0.235594
0.0255871
-0.231008
0.0562294
-0.21341
0.0835386
-0.19374
0.107936
-0.174029
0.12915
-0.152342
0.147735
-0.133067
0.164367
-0.117118
0.179343
-0.103036
0.192998
-0.0916931
0.205618
-0.0823483
0.217369
-0.0748344
0.228392
-0.0688266
0.238819
-0.0642763
0.24874
-0.0606255
0.258225
-0.0578582
0.267289
-0.0553093
0.275906
-0.0523568
0.283832
-0.0469966
0.290838
-0.03983
0.296845
-0.0332523
0.301874
-0.0269076
0.305974
-0.0209081
0.309147
-0.015143
0.311455
-0.00964287
0.312897
-0.00432531
0.31353
0.00076068
0.313362
0.00582353
0.312339
0.0110317
0.310406
0.0169191
0.307182
0.0253081
0.301977
0.0379063
0.292702
0.0749733
0.275037
0.138428
-0.195756
0.223011
-0.186912
0.250507
-0.191001
0.281637
-0.20545
0.308979
-0.184677
0.335747
-0.179109
0.361798
-0.169768
0.385357
-0.152148
0.407255
-0.137981
0.427107
-0.122074
0.445008
-0.106261
0.461183
-0.0919473
0.475468
-0.0774866
0.487937
-0.0640008
0.498708
-0.0509708
0.507711
-0.0378658
0.514903
-0.0251966
0.52031
-0.0120662
0.523862
0.000760914
0.52547
0.014428
0.525139
0.0277126
0.522955
0.0416464
0.51892
0.0541928
0.513274
0.0654084
0.506373
0.0727107
0.498541
0.0746647
0.490039
0.0757708
0.480922
0.078518
0.471195
0.0813754
0.460903
0.0847603
0.450109
0.0886667
0.438766
0.0930242
0.426922
0.0979819
0.414484
0.104015
0.401357
0.111944
0.387149
0.123358
0.371014
0.142881
0.351443
0.174853
0.322627
0.260325
0.279129
0.346966
-0.168837
-0.190115
-0.140945
-0.200696
-0.105983
-0.245596
-0.071152
-0.252613
-0.0354994
-0.262831
0.00122075
-0.272314
0.0365096
-0.266297
0.0680184
-0.244919
0.0958636
-0.221585
0.120552
-0.198717
0.141844
-0.173635
0.160348
-0.15157
0.17685
-0.13362
0.191696
-0.117882
0.205268
-0.105265
0.217908
-0.0949878
0.22973
-0.0866573
0.240916
-0.0800117
0.251559
-0.0749197
0.261751
-0.0708178
0.271521
-0.0676283
0.280912
-0.0646995
0.289857
-0.0613024
0.298151
-0.0552907
0.305527
-0.0472053
0.311901
-0.0396262
0.317284
-0.0322912
0.321706
-0.0253296
0.325158
-0.0185953
0.327684
-0.012169
0.329329
-0.00597075
0.330096
-6.27235e-06
0.330016
0.00590413
0.329042
0.0120059
0.327061
0.0189001
0.323744
0.0286245
0.318367
0.043283
0.30909
0.084251
0.292037
0.155481
-0.195321
0.223942
-0.215534
0.252888
-0.219946
0.285717
-0.238279
0.314452
-0.213412
0.342693
-0.20735
0.370105
-0.19718
0.394889
-0.176932
0.417674
-0.160765
0.438644
-0.143045
0.457383
-0.125
0.47427
-0.108834
0.489377
-0.0925929
0.502714
-0.0773386
0.514292
-0.0625484
0.524111
-0.0476847
0.532193
-0.0332785
0.538403
-0.0182762
0.542696
-0.00353252
0.545062
0.0120625
0.545453
0.0273214
0.54395
0.043149
0.540594
0.0575491
0.535553
0.0704496
0.529141
0.0791229
0.521689
0.0821165
0.513404
0.0840553
0.504341
0.0875816
0.494571
0.0911448
0.484158
0.0951739
0.473091
0.0997329
0.461383
0.104732
0.449036
0.110329
0.435997
0.117055
0.422149
0.125792
0.407273
0.138233
0.390732
0.159422
0.371641
0.193944
0.345638
0.286328
0.305339
0.387266
-0.16691
-0.218526
-0.137664
-0.229942
-0.100927
-0.282333
-0.0645366
-0.289004
-0.0272299
-0.300137
0.0110653
-0.310609
0.0478172
-0.303049
0.0803762
-0.277478
0.108943
-0.250152
0.1341
-0.223874
0.15559
-0.195125
0.174119
-0.170099
0.190546
-0.150047
0.205276
-0.132612
0.218744
-0.118734
0.231313
-0.107556
0.243167
-0.0985112
0.25444
-0.091285
0.265238
-0.085717
0.275647
-0.0812269
0.2857
-0.0776815
0.295361
-0.0743606
0.304613
-0.0705549
0.31326
-0.0639374
0.321025
-0.0549706
0.327753
-0.0463535
0.333493
-0.0380318
0.338217
-0.0300536
0.341971
-0.0223491
0.344751
-0.014949
0.346586
-0.00780593
0.347512
-0.000932366
0.347518
0.00589864
0.346588
0.0129362
0.344605
0.0208823
0.341214
0.0320163
0.335649
0.048848
0.326388
0.0935112
0.309938
0.171932
-0.195329
0.225565
-0.24577
0.256061
-0.250442
0.290786
-0.273004
0.32098
-0.243606
0.35051
-0.23688
0.379399
-0.226069
0.405357
-0.20289
0.429286
-0.184694
0.451246
-0.165005
0.470867
-0.144621
0.488614
-0.126581
0.504601
-0.10858
0.518649
-0.0913861
0.530948
-0.0748477
0.541634
-0.0583707
0.550425
-0.0420691
0.557416
-0.0252671
0.562466
-0.0085826
0.565632
0.0088965
0.566812
0.026141
0.565924
0.0440366
0.56322
0.0602537
0.55876
0.0749099
0.552853
0.0850299
0.545755
0.0892143
0.53764
0.0921699
0.528684
0.0965376
0.518932
0.100897
0.508379
0.105727
0.497133
0.110979
0.485146
0.11672
0.472393
0.123082
0.458836
0.130612
0.444355
0.140273
0.428724
0.153864
0.411325
0.176821
0.391625
0.213645
0.36712
0.310833
0.329591
0.424795
-0.165548
-0.248307
-0.134836
-0.260653
-0.096138
-0.321031
-0.0578874
-0.327254
-0.0188997
-0.339125
0.0212317
-0.350741
0.0595129
-0.34133
0.0933125
-0.311277
0.122773
-0.279613
0.148568
-0.249669
0.170381
-0.216938
0.189008
-0.188726
0.205427
-0.166466
0.220066
-0.14725
0.233424
-0.132091
0.245914
-0.120046
0.257731
-0.110328
0.26903
-0.102584
0.27995
-0.0966374
0.290524
-0.0918006
0.30076
-0.0879176
0.310698
-0.0842981
0.320255
-0.0801126
0.329233
-0.0729146
0.337346
-0.0630844
0.344458
-0.0534646
0.350531
-0.0441052
0.355599
-0.0351219
0.359637
-0.0263871
0.36267
-0.0179822
0.364732
-0.00986771
0.365803
-0.00200279
0.365928
0.00577273
0.365055
0.0138095
0.363053
0.0228839
0.359573
0.0354967
0.353887
0.054534
0.344667
0.102731
0.328795
0.187804
-0.195962
0.227769
-0.277576
0.259843
-0.282516
0.296499
-0.30966
0.328377
-0.275484
0.359526
-0.26803
0.389891
-0.256434
0.416996
-0.229995
0.442158
-0.209856
0.465157
-0.188004
0.485723
-0.165188
0.504264
-0.145122
0.520889
-0.125204
0.535739
-0.106236
0.548886
-0.0879948
0.560163
-0.0696482
0.569732
-0.0516379
0.577445
-0.0329798
0.583285
-0.014423
0.587112
0.00506913
0.588964
0.0242896
0.588796
0.0442042
0.586671
0.0623789
0.582791
0.0787896
0.577396
0.0904258
0.570699
0.095911
0.56289
0.099979
0.554054
0.105373
0.544273
0.110678
0.533672
0.116327
0.522211
0.122441
0.509952
0.128978
0.496869
0.136165
0.482879
0.144601
0.467847
0.155305
0.451514
0.170197
0.433308
0.195027
0.412549
0.234404
0.388358
0.335023
0.35266
0.460494
-0.164505
-0.279765
-0.132286
-0.292872
-0.0915125
-0.361805
-0.0513308
-0.367436
-0.0103781
-0.380078
0.0316191
-0.392738
0.0716641
-0.381375
0.106854
-0.346467
0.137381
-0.31014
0.16389
-0.276178
0.186167
-0.239215
0.205006
-0.207564
0.221493
-0.182953
0.236074
-0.161832
0.249334
-0.145351
0.261723
-0.132435
0.273474
-0.122079
0.284775
-0.113885
0.295723
-0.107585
0.306408
-0.102485
0.316847
-0.0983567
0.327007
-0.0944581
0.336821
-0.089927
0.346127
-0.0822209
0.354592
-0.0715493
0.362056
-0.060928
0.368497
-0.0505461
0.373888
-0.0405129
0.378242
-0.0307412
0.381537
-0.0212776
0.383799
-0.01213
0.385065
-0.00326812
0.385299
0.00553884
0.38449
0.0146178
0.382479
0.0248949
0.378949
0.0390274
0.373126
0.0603564
0.363964
0.111893
0.348729
0.203039
-0.196916
0.230524
-0.311184
0.264359
-0.316352
0.303054
-0.348355
0.336535
-0.308964
0.369299
-0.300793
0.40125
-0.288385
0.429867
-0.258612
0.456166
-0.236154
0.480241
-0.21208
0.501714
-0.18666
0.521157
-0.164565
0.538648
-0.142696
0.554117
-0.121705
0.567888
-0.101766
0.579941
-0.081701
0.590198
-0.0618952
0.598572
-0.0413533
0.605046
-0.0208975
0.609556
0.000560015
0.612098
0.0217472
0.612607
0.043695
0.611146
0.0638404
0.607849
0.0820861
0.602952
0.0953234
0.596644
0.102219
0.58911
0.107513
0.580427
0.114056
0.570719
0.120386
0.560025
0.127021
0.548417
0.134048
0.535898
0.141498
0.522459
0.149604
0.508068
0.158992
0.492524
0.170849
0.475575
0.187146
0.456664
0.213939
0.434877
0.256191
0.410253
0.359647
0.375647
0.4951
-0.163821
-0.31286
-0.129873
-0.32682
-0.086966
-0.404712
-0.0446929
-0.409709
-0.0016967
-0.423074
0.0423505
-0.436785
0.0843371
-0.423362
0.121024
-0.383154
0.152723
-0.341838
0.180134
-0.303588
0.202986
-0.262068
0.222136
-0.226715
0.238724
-0.199541
0.253313
-0.176421
0.266498
-0.158536
0.278792
-0.14473
0.290446
-0.133734
0.301695
-0.125134
0.312668
-0.118558
0.323414
-0.113231
0.333972
-0.108915
0.344313
-0.104799
0.354401
-0.100015
0.364007
-0.0918273
0.372811
-0.0803527
0.380627
-0.0687439
0.387406
-0.0573256
0.393144
-0.0462512
0.397782
-0.0353792
0.401361
-0.0248564
0.40386
-0.0146285
0.405294
-0.00470221
0.405673
0.00515994
0.404916
0.0153741
0.402921
0.0268898
0.39933
0.0426192
0.3934
0.0662857
0.384362
0.12093
0.369784
0.217618
-0.198372
0.233689
-0.346501
0.269386
-0.352049
0.310241
-0.389211
0.345578
-0.344301
0.380097
-0.335312
0.413691
-0.321979
0.443729
-0.28865
0.471367
-0.263792
0.496506
-0.237219
0.518968
-0.209123
0.539249
-0.184845
0.557481
-0.160928
0.573773
-0.137996
0.588251
-0.116245
0.600922
-0.0943718
0.611776
-0.0727493
0.620822
-0.0503995
0.627987
-0.0280618
0.633156
-0.00460988
0.63627
0.0186334
0.637409
0.042556
0.636531
0.064719
0.633799
0.0848176
0.62945
0.0996726
0.623635
0.108034
0.616399
0.114749
0.607921
0.122534
0.598267
0.13004
0.587529
0.13776
0.575784
0.145793
0.563037
0.154244
0.549268
0.163374
0.534432
0.173828
0.518375
0.186906
0.500833
0.204688
0.481268
0.233504
0.458669
0.27879
0.433376
0.38494
0.39942
0.529057
-0.163356
-0.347876
-0.127749
-0.362427
-0.082475
-0.449986
-0.0380123
-0.454172
0.00722964
-0.468316
0.0535424
-0.483098
0.0974919
-0.467311
0.135882
-0.421544
0.168879
-0.374835
0.197294
-0.332004
0.220817
-0.28559
0.240365
-0.246263
0.257179
-0.216355
0.271824
-0.191066
0.284965
-0.171677
0.297171
-0.156936
0.308729
-0.145291
0.319899
-0.136303
0.33083
-0.129489
0.341611
-0.124012
0.352252
-0.119556
0.36276
-0.115307
0.373056
-0.110311
0.382954
-0.101726
0.392073
-0.0894713
0.400227
-0.0768981
0.40735
-0.0644479
0.413397
-0.0522983
0.418359
-0.0403416
0.422216
-0.028713
0.42496
-0.0173728
0.4266
-0.00634217
0.427109
0.00465056
0.426443
0.0160401
0.424453
0.02888
0.420841
0.0462316
0.414833
0.0722931
0.405884
0.129879
0.392013
0.231489
-0.200072
0.237335
-0.383763
0.274998
-0.389712
0.318154
-0.432367
0.355382
-0.38153
0.391685
-0.371614
0.42704
-0.357334
0.458629
-0.320239
0.487582
-0.292745
0.513958
-0.263595
0.53742
-0.232584
0.55867
-0.206096
0.57769
-0.179949
0.594696
-0.155001
0.609851
-0.131401
0.623067
-0.107588
0.634605
-0.0842873
0.644274
-0.0600684
0.652032
-0.0358195
0.657854
-0.0104321
0.661633
0.0148547
0.663354
0.0408351
0.663087
0.0649856
0.660932
0.086973
0.657089
0.103515
0.651694
0.113428
0.644787
0.121657
0.636545
0.130775
0.627014
0.139571
0.616265
0.148509
0.604395
0.157664
0.591412
0.167226
0.57733
0.177456
0.562057
0.189102
0.54551
0.203453
0.527371
0.222827
0.50716
0.253715
0.483807
0.302143
0.45792
0.410827
0.424458
0.562518
-0.163277
-0.384671
-0.125623
-0.400081
-0.0779708
-0.497639
-0.0311308
-0.501012
0.016422
-0.515869
0.0650651
-0.531741
0.111279
-0.513525
0.151453
-0.461718
0.185921
-0.409303
0.215442
-0.361525
0.239748
-0.309896
0.25977
-0.266285
0.276861
-0.233446
0.29161
-0.205816
0.304735
-0.184802
0.316882
-0.169083
0.328352
-0.156762
0.339414
-0.147366
0.350287
-0.140362
0.361065
-0.13479
0.371761
-0.130253
0.382378
-0.125923
0.392877
-0.12081
0.403027
-0.111876
0.412441
-0.0988854
0.420916
-0.0853725
0.428369
-0.0719017
0.434757
-0.0586858
0.440031
-0.0456159
0.444171
-0.032853
0.447158
-0.0203598
0.44899
-0.00817369
0.449657
0.0039837
0.449081
0.0166153
0.447122
0.0308398
0.443483
0.0498701
0.437432
0.0783446
0.428658
0.138652
0.41548
0.244667
-0.202087
0.241458
-0.423134
0.281144
-0.429398
0.326715
-0.477938
0.3659
-0.420715
0.404137
-0.409851
0.441449
-0.394647
0.474567
-0.353357
0.504968
-0.323146
0.532706
-0.291332
0.557273
-0.257151
0.579413
-0.228236
0.599286
-0.199821
0.616925
-0.17264
0.63276
-0.147236
0.646733
-0.12156
0.658839
-0.096394
0.669112
-0.0703413
0.677442
-0.0441497
0.683754
-0.0167438
0.688104
0.0105047
0.69044
0.0384996
0.690696
0.0647293
0.689097
0.0885718
0.685779
0.106834
0.680854
0.118353
0.674353
0.128158
0.666322
0.138806
0.65693
0.148964
0.646239
0.1592
0.634276
0.169627
0.621103
0.180399
0.606699
0.191859
0.591055
0.204746
0.573993
0.220515
0.555234
0.241585
0.53437
0.274579
0.510371
0.326142
0.48391
0.437289
0.450974
0.595454
-0.163289
-0.423469
-0.123759
-0.439611
-0.0734441
-0.547954
-0.0241206
-0.550335
0.0259228
-0.565912
0.0771334
-0.582952
0.125637
-0.562029
0.167792
-0.503873
0.203781
-0.445293
0.234566
-0.392309
0.259726
-0.335056
0.28035
-0.286909
0.297796
-0.250891
0.312716
-0.220737
0.32589
-0.197976
0.337979
-0.181171
0.349352
-0.168135
0.360335
-0.158349
0.371124
-0.151151
0.381852
-0.145517
0.392565
-0.140966
0.403283
-0.136641
0.413943
-0.13147
0.424319
-0.122252
0.434025
-0.108592
0.4428
-0.0941472
0.450571
-0.079673
0.457267
-0.0653812
0.462852
-0.0512009
0.467266
-0.0372672
0.470514
-0.0236081
0.472573
-0.0102329
0.473384
0.00317353
0.472926
0.017073
0.471015
0.0327509
0.467369
0.0535162
0.461303
0.0844104
0.452677
0.147278
0.440247
0.257097
-0.204472
0.246003
-0.464664
0.287819
-0.471214
0.335904
-0.526023
0.377157
-0.461969
0.417515
-0.450209
0.456785
-0.433916
0.491611
-0.388183
0.523572
-0.355108
0.552607
-0.320367
0.578274
-0.282817
0.601411
-0.251374
0.622163
-0.220574
0.640679
-0.191156
0.657147
-0.163705
0.671709
-0.136122
0.684401
-0.109086
0.695226
-0.0811662
0.704114
-0.0530382
0.711075
-0.0237045
0.715946
0.00563396
0.718777
0.0356681
0.719621
0.0638858
0.718521
0.0896712
0.715701
0.109653
0.711216
0.122839
0.705087
0.134287
0.697365
0.146528
0.688141
0.158187
0.677491
0.16985
0.665469
0.181649
0.652136
0.193732
0.637471
0.206524
0.621413
0.220803
0.603857
0.238072
0.584524
0.260918
0.56303
0.296073
0.538364
0.350809
0.511402
0.464251
0.479013
0.627843
-0.163508
-0.464433
-0.121831
-0.481288
-0.0688148
-0.60097
-0.0168618
-0.602288
0.035826
-0.6186
0.0897233
-0.636849
0.140725
-0.613031
0.184952
-0.5481
0.222642
-0.482982
0.25475
-0.424417
0.280903
-0.361209
0.30217
-0.308177
0.320028
-0.268749
0.335187
-0.235895
0.348438
-0.211228
0.360523
-0.193256
0.371817
-0.179429
0.382697
-0.169229
0.393395
-0.161849
0.404067
-0.15619
0.414765
-0.151664
0.425527
-0.147403
0.436324
-0.142268
0.446928
-0.132856
0.456878
-0.118542
0.46593
-0.103199
0.474001
-0.0877446
0.481006
-0.0723861
0.486896
-0.057091
0.49161
-0.0419807
0.495114
-0.0271128
0.497372
-0.0124904
0.498376
0.00216945
0.498024
0.0174246
0.496178
0.0345977
0.492548
0.0571455
0.486486
0.0904723
0.478071
0.155693
0.466418
0.26875
-0.20707
0.25082
-0.508414
0.294967
-0.515361
0.345736
-0.576791
0.389225
-0.505458
0.431746
-0.49273
0.473051
-0.475221
0.509736
-0.424868
0.543311
-0.388684
0.573729
-0.350785
0.60063
-0.309718
0.624905
-0.275649
0.646515
-0.242184
0.665797
-0.210438
0.682998
-0.180905
0.698161
-0.151285
0.711454
-0.122379
0.72282
-0.0925319
0.732274
-0.0624922
0.739703
-0.0311336
0.745132
0.000204937
0.74847
0.0323301
0.749783
0.0625726
0.749216
0.0902376
0.746874
0.111996
0.74287
0.126843
0.737111
0.140046
0.729679
0.15396
0.720653
0.167213
0.710075
0.180427
0.698045
0.19368
0.684568
0.207209
0.669655
0.221438
0.653243
0.237215
0.635214
0.2561
0.61533
0.280802
0.593166
0.318238
0.567899
0.376075
0.540479
0.491672
0.508607
0.659714
-0.163883
-0.50762
-0.119996
-0.525175
-0.0641117
-0.656855
-0.00932464
-0.657075
0.0461365
-0.674061
0.102841
-0.693553
0.156549
-0.666738
0.20296
-0.594512
0.242483
-0.522505
0.276029
-0.457963
0.30323
-0.38841
0.325234
-0.330181
0.343607
-0.287122
0.359048
-0.251336
0.372431
-0.224611
0.384548
-0.205373
0.395797
-0.190677
0.406588
-0.18002
0.417187
-0.172448
0.427771
-0.166774
0.438443
-0.162336
0.44923
-0.158189
0.460134
-0.153172
0.470904
-0.143626
0.481078
-0.128715
0.490404
-0.112525
0.498756
-0.0960959
0.506068
-0.0796987
0.512243
-0.063266
0.517243
-0.0469802
0.521006
-0.0308761
0.523508
-0.0149928
0.524679
0.000998831
0.524449
0.0176549
0.522688
0.0363582
0.519087
0.0607465
0.513093
0.0964665
0.504881
0.163906
0.493985
0.279646
-0.209996
0.256147
-0.554566
0.302736
-0.561949
0.356191
-0.630246
0.402147
-0.551415
0.446837
-0.53742
0.490415
-0.518799
0.528949
-0.463403
0.564242
-0.423976
0.596204
-0.382747
0.624416
-0.33793
0.649675
-0.300908
0.672324
-0.264832
0.692373
-0.230487
0.710292
-0.198824
0.726189
-0.167182
0.740023
-0.136213
0.751968
-0.104476
0.761925
-0.0724497
0.769907
-0.0391155
0.77579
-0.00567828
0.779601
0.0285189
0.781439
0.0607356
0.78129
0.090386
0.779412
0.113874
0.775822
0.130433
0.770448
0.14542
0.76334
0.161068
0.754536
0.176017
0.744114
0.19085
0.732074
0.205719
0.718487
0.220797
0.703341
0.236583
0.68659
0.253966
0.668131
0.27456
0.647664
0.301269
0.624918
0.340984
0.59905
0.401943
0.571153
0.519569
0.539823
0.691045
-0.164467
-0.553148
-0.118198
-0.571443
-0.0592316
-0.715822
-0.00153749
-0.71477
0.0569172
-0.732516
0.116631
-0.753267
0.173077
-0.723185
0.221915
-0.64335
0.263344
-0.563934
0.29848
-0.4931
0.326841
-0.41677
0.34967
-0.35301
0.368601
-0.306053
0.384388
-0.267123
0.397958
-0.238181
0.410119
-0.217534
0.421361
-0.201919
0.432062
-0.190721
0.442562
-0.182948
0.453057
-0.177269
0.463672
-0.172951
0.474461
-0.168979
0.485451
-0.164161
0.496378
-0.154554
0.506761
-0.139098
0.516313
-0.122077
0.524921
-0.104704
0.532499
-0.0872772
0.538974
-0.0697401
0.544242
-0.0522484
0.548278
-0.0349122
0.550994
-0.0177084
0.552368
-0.000376035
0.5523
0.0177234
0.550605
0.0380534
0.547097
0.0642538
0.541164
0.102399
0.533231
0.171839
0.523107
0.28977
-0.213154
0.261835
-0.603247
0.310894
-0.611008
0.367417
-0.68677
0.415685
-0.599683
0.462899
-0.584633
0.508743
-0.564643
0.549388
-0.504047
0.586412
-0.461001
0.619958
-0.416293
0.649504
-0.367475
0.676044
-0.327449
0.699623
-0.288412
0.720615
-0.251478
0.739289
-0.217499
0.755817
-0.18371
0.770272
-0.150668
0.782735
-0.116939
0.793176
-0.082891
0.801591
-0.0475306
0.80796
-0.0120472
0.812267
0.0242122
0.814477
0.0585249
0.814779
0.0900844
0.813356
0.115297
0.810184
0.133606
0.805231
0.150373
0.798442
0.167857
0.789862
0.184597
0.779554
0.201157
0.767574
0.2177
0.753911
0.234459
0.738568
0.251926
0.721511
0.271024
0.702625
0.293446
0.681664
0.32223
0.658326
0.364321
0.631899
0.42837
0.603574
0.547894
0.572744
0.721874
-0.165158
-0.601145
-0.116386
-0.620215
-0.0542021
-0.778005
0.00655805
-0.77553
0.0681516
-0.794109
0.131053
-0.816168
0.190503
-0.782635
0.241815
-0.694662
0.285314
-0.607433
0.322104
-0.52989
0.35173
-0.446396
0.37547
-0.376751
0.395029
-0.325611
0.411237
-0.283331
0.42504
-0.251984
0.437309
-0.229803
0.448543
-0.213152
0.459192
-0.20137
0.469597
-0.193353
0.480019
-0.187692
0.49055
-0.183482
0.501336
-0.179765
0.512373
-0.175198
0.523431
-0.165612
0.533995
-0.149662
0.543744
-0.131825
0.552609
-0.11357
0.560446
-0.0951147
0.567169
-0.0764629
0.572736
-0.0578148
0.577018
-0.039195
0.579977
-0.0206673
0.581527
-0.00192622
0.581611
0.0176398
0.580055
0.0396095
0.576617
0.0676919
0.570826
0.10819
0.563147
0.179518
0.553812
0.299105
-0.216605
0.267902
-0.654544
0.319635
-0.66274
0.379211
-0.746346
0.430202
-0.650674
0.479859
-0.63429
0.528235
-0.613019
0.570897
-0.54671
0.609876
-0.49998
0.64512
-0.451537
0.676151
-0.398506
0.703868
-0.355166
0.728601
-0.313145
0.750474
-0.273351
0.769944
-0.236969
0.787116
-0.200882
0.802212
-0.165764
0.815186
-0.129912
0.826114
-0.0938196
0.835036
-0.0564525
0.841816
-0.0188269
0.84651
0.0195181
0.84915
0.0558844
0.849855
0.0893802
0.848831
0.11632
0.846077
0.13636
0.841477
0.154973
0.835007
0.174327
0.826719
0.192885
0.816586
0.211291
0.804645
0.229641
0.790926
0.248178
0.775438
0.267414
0.758111
0.288351
0.738831
0.312726
0.717387
0.343673
0.6935
0.388209
0.666549
0.455321
0.637815
0.576628
0.607438
0.752252