/*--------------------------------*- C++ -*----------------------------------*\
  =========                 |
  \\      /  F ield         | OpenFOAM: The Open Source CFD Toolbox
   \\    /   O peration     | Website:  https://openfoam.org
    \\  /    A nd           | Version:  7
     \\/     M anipulation  |
\*---------------------------------------------------------------------------*/
FoamFile
{
    version     2.0;
    format      ascii;
    class       volVectorField;
    location    "250";
    object      U;
}
// * * * * * * * * * * * * * * * * * * * * * * * * * * * * * * * * * * * * * //

dimensions      [0 1 -1 0 0 0 0];

internalField   nonuniform List<vector> 
10720
(
(0.353524 28.5446 1.69178e-17)
(2.17691 30.8194 -1.56911e-17)
(4.44493 33.0046 0)
(7.03837 34.68 -4.11891e-16)
(9.89359 35.9408 4.61422e-16)
(12.9435 36.7446 3.32915e-16)
(16.0306 36.9877 4.55816e-16)
(19.0616 36.7127 0)
(21.9583 35.9829 0)
(24.643 34.838 0)
(27.0876 33.3597 1.17473e-16)
(29.2801 31.6389 0)
(31.1913 29.6961 2.37255e-15)
(32.8164 27.5686 0)
(34.1446 25.2867 0)
(35.1883 22.8972 0)
(35.9353 20.4198 -3.99984e-15)
(36.3896 17.9065 -5.97966e-15)
(36.5322 15.3813 5.32018e-15)
(36.3743 12.9044 0)
(35.898 10.5119 4.37445e-15)
(35.14 8.27697 -8.57112e-15)
(34.1476 6.25112 4.2686e-15)
(33.0304 4.49765 -1.28019e-16)
(31.9873 3.06433 0)
(31.1032 1.8986 1.69306e-15)
(30.2821 0.912234 2.61981e-17)
(29.4252 0.0637316 -7.41819e-16)
(28.4955 -0.669702 -2.70819e-15)
(27.4892 -1.30281 -9.83191e-15)
(26.4097 -1.84223 4.38222e-15)
(25.2606 -2.29131 7.99018e-15)
(24.0397 -2.65109 6.89289e-15)
(22.7386 -2.92212 2.35603e-14)
(21.3105 -3.10016 -9.53238e-15)
(19.7182 -3.18336 -6.74332e-17)
(17.6605 -3.11974 2.20486e-17)
(15.2378 -2.89574 3.9479e-15)
(9.81888 -2.32796 1.36904e-14)
(-1.10115 26.1053 1.07224e-18)
(-2.29013 23.346 -8.60047e-18)
(-3.14474 20.2315 4.58823e-17)
(-3.52904 16.6081 -1.37186e-16)
(-3.28792 12.8558 -4.7136e-16)
(-2.37528 9.10685 8.42709e-16)
(-0.85198 5.63842 4.20172e-15)
(1.04376 2.7443 2.56865e-15)
(3.02634 0.3714 0)
(5.23077 -1.70163 0)
(7.51247 -3.26666 2.08152e-15)
(9.63522 -4.28655 7.60197e-16)
(11.5212 -4.88167 -1.26594e-15)
(13.1747 -5.17894 1.04267e-15)
(14.6201 -5.28004 1.72058e-15)
(15.8897 -5.2508 1.10906e-15)
(17.0138 -5.14043 1.41565e-15)
(18.0246 -4.97893 9.39842e-16)
(18.9531 -4.78692 0)
(19.8216 -4.56796 0)
(20.6484 -4.3239 -1.29802e-15)
(21.4447 -4.04464 -5.9807e-17)
(22.2126 -3.71499 8.80502e-16)
(22.922 -3.30418 -6.13533e-16)
(23.507 -2.80695 2.36343e-17)
(23.9491 -2.26062 0)
(24.2739 -1.69146 1.04177e-16)
(24.4975 -1.11541 0)
(24.6262 -0.543736 0)
(24.6588 0.0121202 1.95647e-17)
(24.5728 0.543963 0)
(24.3818 1.04489 6.34776e-18)
(24.1047 1.5089 -4.71168e-17)
(23.7564 1.93056 -5.79366e-16)
(23.3318 2.30599 5.41522e-16)
(22.8207 2.63584 -2.74686e-18)
(22.0979 2.91242 0)
(21.0945 3.09729 5.16632e-15)
(18.2616 3.23234 9.23107e-15)
(7.0773 24.7992 -5.53563e-18)
(9.00741 26.5377 -2.6984e-18)
(11.3542 28.1086 0)
(14.0488 29.4078 0)
(16.9419 30.3752 -1.35445e-16)
(20.0377 30.9506 -3.19088e-16)
(23.2181 31.0897 0)
(26.3476 30.8154 0)
(29.3703 30.1396 6.73604e-16)
(32.1974 29.1135 0)
(34.7747 27.7983 2.47147e-15)
(37.0723 26.2418 0)
(39.0845 24.526 8.82468e-16)
(40.8184 22.7044 -8.69403e-16)
(42.2795 20.7965 1.74876e-15)
(43.4364 18.8313 -3.49664e-15)
(44.2885 16.8209 3.74183e-15)
(44.8255 14.7907 3.42411e-15)
(45.048 12.7492 3.35329e-15)
(44.9383 10.7277 2.03774e-16)
(44.4975 8.75207 -3.50124e-15)
(43.7173 6.87741 3.32469e-15)
(42.6236 5.14531 -1.87571e-16)
(41.2524 3.61352 0)
(39.713 2.33367 0)
(38.1534 1.25207 0)
(36.6314 0.291191 1.41268e-16)
(35.1381 -0.558957 -3.15594e-17)
(33.6747 -1.30093 1.98504e-15)
(32.2361 -1.94129 3.76385e-17)
(30.8066 -2.48278 -2.98148e-17)
(29.3683 -2.92792 -8.71473e-17)
(27.9027 -3.27906 4.7452e-15)
(26.3944 -3.53859 -7.96396e-15)
(24.8033 -3.70646 -4.32748e-17)
(23.1108 -3.78374 -9.22082e-15)
(21.0585 -3.73001 0)
(18.8659 -3.54488 -1.1421e-15)
(13.5765 -2.78497 7.2561e-15)
(5.44126 22.9444 7.0346e-18)
(4.01666 20.879 -3.93068e-17)
(2.75758 18.4581 -4.94919e-16)
(1.79176 15.7048 6.09106e-16)
(1.29537 12.7141 0)
(1.35483 9.61876 -1.31481e-15)
(1.99914 6.61346 -9.41887e-16)
(3.15509 3.92337 -7.34701e-15)
(4.64527 1.57926 2.36682e-15)
(6.38314 -0.373875 -1.78929e-15)
(8.25769 -1.8099 2.24896e-15)
(10.1066 -2.76973 -6.39966e-16)
(11.8409 -3.37109 0)
(13.4281 -3.7137 -4.27359e-16)
(14.8596 -3.88041 5.2514e-17)
(16.146 -3.92471 -9.53239e-16)
(17.3028 -3.89175 0)
(18.353 -3.80727 0)
(19.3201 -3.68961 -9.86434e-17)
(20.2268 -3.53663 9.47534e-17)
(21.0883 -3.34675 -1.12121e-15)
(21.917 -3.10361 -1.21118e-16)
(22.7146 -2.78745 5.3203e-17)
(23.4579 -2.36167 5.92738e-16)
(24.0931 -1.83914 -4.20061e-16)
(24.5955 -1.28667 -3.09478e-16)
(24.981 -0.733038 0)
(25.2623 -0.189378 0)
(25.4429 0.3379 0)
(25.528 0.839958 8.55226e-18)
(25.547 1.30918 0)
(25.4959 1.74258 0)
(25.3644 2.13905 1.18977e-16)
(25.146 2.49762 2.15273e-16)
(24.8324 2.82002 -4.39001e-16)
(24.4323 3.11164 8.10336e-16)
(23.8446 3.37041 -2.49426e-15)
(23.2549 3.59009 -3.95788e-15)
(21.1608 3.62655 -6.2167e-15)
(8.36094 22.8291 -9.89531e-19)
(9.76488 24.3526 1.96434e-17)
(11.4662 25.8289 -1.60715e-17)
(13.4178 27.1834 -4.35957e-17)
(15.564 28.2977 -1.77863e-16)
(17.9054 29.1471 6.14611e-16)
(20.3669 29.6917 -4.29767e-16)
(22.8723 29.895 -5.01799e-16)
(25.3666 29.7555 4.42134e-18)
(27.7917 29.2855 -6.51284e-16)
(30.0957 28.5063 6.03764e-16)
(32.247 27.4477 -1.5673e-15)
(34.2184 26.1411 -7.47961e-16)
(35.9959 24.6152 0)
(37.5629 22.9056 -1.78942e-15)
(38.934 21.0373 3.59483e-15)
(40.1139 19.0307 0)
(41.083 16.9297 -6.80596e-15)
(41.8316 14.7638 -3.40254e-15)
(42.332 12.5855 3.967e-16)
(42.5716 10.4327 -3.93119e-16)
(42.529 8.37319 -1.78205e-16)
(42.2057 6.45632 -2.53247e-15)
(41.6097 4.74466 1.27239e-15)
(40.7921 3.2833 0)
(39.8304 2.01617 1.11151e-15)
(38.7461 0.874371 -1.31287e-16)
(37.5334 -0.142253 0)
(36.2101 -1.03057 1.7454e-15)
(34.8035 -1.79493 3.23986e-15)
(33.3345 -2.43821 -5.71186e-15)
(31.8166 -2.9644 -4.91651e-15)
(30.2526 -3.37861 -1.05632e-16)
(28.6383 -3.6856 -6.98676e-15)
(26.9392 -3.8877 -5.60324e-15)
(25.1371 -3.98452 8.04122e-15)
(22.9902 -3.94306 0)
(20.7218 -3.71963 -8.94046e-16)
(15.847 -3.03098 -1.1051e-14)
(7.20706 21.2206 -1.25148e-17)
(6.19035 19.4577 -5.02134e-17)
(5.33057 17.3782 1.95128e-16)
(4.63179 15.0438 0)
(4.24309 12.534 3.8094e-16)
(4.21429 9.91449 0)
(4.5755 7.31202 2.70426e-15)
(5.31282 4.89207 1.63562e-15)
(6.37717 2.73621 1.54061e-15)
(7.71037 0.89947 0)
(9.19671 -0.563612 -2.26098e-15)
(10.7192 -1.66619 -4.84595e-16)
(12.2024 -2.4645 2.19254e-15)
(13.6055 -3.0168 0)
(14.9088 -3.3757 -1.02085e-15)
(16.1096 -3.58599 -3.08235e-16)
(17.2135 -3.68683 1.27195e-15)
(18.2333 -3.70549 6.59221e-16)
(19.1854 -3.66138 1.8136e-16)
(20.0865 -3.56068 -9.83264e-17)
(20.949 -3.40646 1.02194e-15)
(21.7815 -3.19076 0)
(22.5843 -2.90043 0)
(23.3379 -2.51378 2.32999e-17)
(23.9989 -2.04408 0)
(24.5435 -1.53963 6.40572e-16)
(24.9822 -1.01988 -8.4258e-18)
(25.3263 -0.492681 -4.03662e-17)
(25.5794 0.0341653 0)
(25.743 0.550564 -2.50606e-17)
(25.8224 1.04906 3.81457e-17)
(25.8231 1.52321 0)
(25.7471 1.96704 -7.95567e-17)
(25.5946 2.37533 0)
(25.3536 2.74619 0)
(25.0232 3.08034 3.87763e-17)
(24.4916 3.37684 -5.22727e-17)
(23.8798 3.59427 3.95553e-15)
(22.0052 3.63134 1.20291e-14)
(10.9039 20.9188 -1.00246e-17)
(12.1998 22.2188 -6.36103e-18)
(13.7491 23.4816 -6.98251e-18)
(15.5266 24.633 -1.17825e-17)
(17.4827 25.5823 0)
(19.6237 26.3112 0)
(21.8921 26.7765 -7.17328e-16)
(24.2254 26.944 8.57485e-16)
(26.5765 26.8073 0)
(28.8896 26.3694 -1.0344e-15)
(31.1128 25.6456 -1.30856e-15)
(33.208 24.6592 -1.23567e-15)
(35.1409 23.4408 1.47136e-15)
(36.8846 22.0238 1.38691e-15)
(38.4202 20.4416 0)
(39.7323 18.7285 2.19894e-15)
(40.793 16.9267 7.61231e-16)
(41.593 15.0686 6.136e-15)
(42.1298 13.1803 3.71659e-16)
(42.4088 11.2905 -3.68541e-16)
(42.4379 9.43042 3.11465e-15)
(42.2322 7.64458 -5.10035e-16)
(41.8197 5.97367 2.77664e-15)
(41.2364 4.4622 1.15894e-15)
(40.5381 3.14189 -6.86003e-17)
(39.7818 1.97547 -1.00557e-15)
(38.9705 0.908347 7.42297e-18)
(38.0713 -0.0638608 -7.44694e-18)
(37.0649 -0.937527 -1.67216e-15)
(35.9453 -1.71308 -4.42667e-17)
(34.71 -2.38671 2.79195e-15)
(33.362 -2.9541 -4.75062e-15)
(31.9059 -3.4126 -3.83632e-15)
(30.347 -3.76082 -1.8968e-18)
(28.6634 -3.9971 5.09687e-15)
(26.8461 -4.11579 0)
(24.6756 -4.08746 4.18728e-15)
(22.3383 -3.82196 7.74303e-16)
(17.7137 -3.17486 4.60882e-15)
(9.81007 19.5562 -2.52803e-17)
(8.82497 18.0753 6.50887e-17)
(7.95501 16.3266 2.93101e-16)
(7.22012 14.3478 0)
(6.7478 12.2109 -3.40066e-16)
(6.5767 9.95938 0)
(6.73289 7.69114 -2.17459e-15)
(7.20449 5.53871 -1.01379e-16)
(7.96184 3.57232 1.12499e-15)
(8.96707 1.84414 1.00212e-15)
(10.1362 0.407122 3.60614e-17)
(11.3864 -0.728583 1.69084e-15)
(12.6556 -1.59157 -1.09937e-15)
(13.8995 -2.22176 3.48431e-16)
(15.0902 -2.65908 1.18902e-15)
(16.2146 -2.94308 1.30896e-15)
(17.2689 -3.1083 -1.17323e-15)
(18.2567 -3.18212 5.34773e-18)
(19.1873 -3.18457 0)
(20.0719 -3.12533 1.2201e-15)
(20.92 -3.00794 5.9759e-17)
(21.7375 -2.82715 -9.17408e-16)
(22.5239 -2.57222 0)
(23.2626 -2.22649 2.20713e-17)
(23.9176 -1.7972 0)
(24.4657 -1.3228 -3.01007e-16)
(24.9126 -0.82612 0)
(25.2684 -0.318987 3.78788e-17)
(25.5371 0.188482 -1.19978e-18)
(25.721 0.685795 6.77299e-19)
(25.8243 1.16394 -3.45669e-17)
(25.8525 1.61538 -1.13343e-18)
(25.8086 2.03601 0)
(25.6946 2.42329 1.85667e-16)
(25.5008 2.77728 3.43691e-18)
(25.2262 3.09796 -8.17559e-16)
(24.765 3.3859 5.06674e-15)
(24.207 3.57246 1.20929e-17)
(22.5115 3.59879 0)
(12.4701 19.4577 -1.43667e-17)
(13.5706 20.6087 -3.98447e-19)
(14.8929 21.7487 -1.16666e-17)
(16.4022 22.8141 1.66427e-16)
(18.0561 23.7219 -5.62609e-17)
(19.8763 24.4663 -1.96288e-16)
(21.8153 25.0071 3.09476e-16)
(23.8249 25.3088 0)
(25.8749 25.3607 1.19996e-15)
(27.9186 25.1556 5.57333e-16)
(29.9149 24.6946 0)
(31.8301 23.9878 1.18757e-15)
(33.6306 23.0522 -6.2511e-16)
(35.2885 21.907 1.73816e-15)
(36.7815 20.5749 0)
(38.089 19.0795 -2.8844e-15)
(39.1988 17.4381 2.7395e-15)
(40.1011 15.6718 -1.68051e-16)
(40.7808 13.8132 0)
(41.2224 11.9064 2.9626e-15)
(41.4164 9.99739 -2.98994e-15)
(41.3617 8.14416 -1.52525e-16)
(41.0762 6.3998 -2.3227e-15)
(40.5954 4.81618 -2.13201e-15)
(39.9796 3.42909 0)
(39.2956 2.21131 0)
(38.5688 1.11101 -2.30343e-16)
(37.7878 0.11485 -2.57905e-17)
(36.9435 -0.778908 1.59035e-15)
(36.0292 -1.57489 -4.22134e-17)
(35.032 -2.27351 4.21477e-17)
(33.9351 -2.87236 4.44783e-15)
(32.72 -3.3682 0)
(31.3716 -3.75672 1.23925e-14)
(29.8571 -4.03218 -4.2674e-17)
(28.1637 -4.18241 0)
(26.0894 -4.17827 -3.21595e-17)
(23.7947 -3.89199 0)
(19.3905 -3.26365 -3.9174e-15)
(11.5355 18.2575 2.38972e-17)
(10.6914 16.9657 -1.55978e-16)
(9.92518 15.4394 1.72402e-16)
(9.24983 13.7143 2.77216e-16)
(8.77816 11.857 -1.09368e-15)
(8.53943 9.89063 -1.41781e-15)
(8.5648 7.88995 1.74241e-15)
(8.85314 5.96385 -1.92903e-15)
(9.38997 4.17715 -8.69976e-16)
(10.1503 2.57623 -7.74207e-16)
(11.0724 1.20406 1.49318e-15)
(12.0948 0.0765359 -1.43558e-15)
(13.1686 -0.821359 -6.29645e-16)
(14.2538 -1.51512 6.12555e-16)
(15.321 -2.0304 -1.33247e-15)
(16.353 -2.39707 2.43865e-16)
(17.3406 -2.64179 0)
(18.2811 -2.78727 -9.28866e-16)
(19.178 -2.85091 3.287e-16)
(20.0375 -2.84319 -1.27651e-15)
(20.8656 -2.76834 0)
(21.6657 -2.62376 7.95032e-16)
(22.4358 -2.40193 6.25578e-16)
(23.161 -2.09193 -4.7595e-16)
(23.8107 -1.69968 0)
(24.362 -1.25719 -3.18037e-16)
(24.8164 -0.788151 0)
(25.1817 -0.304599 0)
(25.4613 0.183779 0)
(25.6573 0.66667 4.04902e-17)
(25.7737 1.13499 0)
(25.8153 1.58195 0)
(25.7855 2.00235 -1.64235e-16)
(25.6868 2.39191 -1.76246e-16)
(25.5111 2.74889 0)
(25.2594 3.07092 -8.48787e-16)
(24.8341 3.35798 6.27479e-17)
(24.3234 3.52717 0)
(22.8187 3.54078 -5.22393e-15)
(13.9554 18.1785 1.71258e-17)
(14.9518 19.1982 -1.21917e-17)
(16.1448 20.2146 0)
(17.5013 21.1686 8.07296e-18)
(18.9803 21.9868 -1.35135e-16)
(20.6124 22.6692 1.85089e-16)
(22.356 23.1779 4.54826e-17)
(24.1722 23.4809 -7.71364e-16)
(26.04 23.5652 -9.33399e-17)
(27.9207 23.42 1.14465e-15)
(29.7785 23.0416 -4.08012e-16)
(31.5835 22.4333 9.17761e-16)
(33.3024 21.6053 4.58957e-16)
(34.9059 20.5717 3.3262e-16)
(36.3685 19.3508 0)
(37.6666 17.9645 -6.2587e-16)
(38.7789 16.4386 -1.38011e-15)
(39.681 14.8106 -5.10333e-15)
(40.3559 13.1141 1.50461e-15)
(40.7943 11.3804 -1.90974e-15)
(40.992 9.64402 -2.99144e-16)
(40.9528 7.94643 0)
(40.6931 6.33083 2.07974e-15)
(40.2442 4.83991 1.32477e-16)
(39.657 3.50632 -5.91397e-17)
(38.9892 2.31713 -8.2393e-16)
(38.2695 1.23464 1.89982e-16)
(37.4975 0.248227 3.97501e-16)
(36.674 -0.640989 -1.4875e-15)
(35.8039 -1.43595 -7.94531e-17)
(34.8864 -2.13823 2.53279e-15)
(33.9134 -2.74712 4.11394e-15)
(32.8677 -3.2609 0)
(31.7254 -3.67566 -1.86384e-17)
(30.4371 -3.98428 -4.64008e-15)
(28.9702 -4.16905 0)
(27.1143 -4.19843 -7.4133e-15)
(25.0091 -3.91329 0)
(20.9003 -3.31574 3.55236e-15)
(13.1007 17.1192 -2.41151e-17)
(12.3248 15.9864 6.37132e-17)
(11.6067 14.6449 0)
(10.9596 13.1251 0)
(10.4836 11.4899 4.70198e-16)
(10.1986 9.75258 2.35148e-15)
(10.1339 7.97056 0)
(10.2942 6.23711 -1.41169e-15)
(10.6715 4.61362 -1.35614e-15)
(11.2464 3.1373 1.36436e-15)
(11.9739 1.84252 -5.5079e-17)
(12.8077 0.748009 5.95675e-16)
(13.711 -0.153256 2.93335e-17)
(14.6503 -0.876821 1.57638e-15)
(15.5981 -1.43823 1.41538e-15)
(16.5365 -1.85887 -1.32896e-15)
(17.4532 -2.1589 1.87295e-16)
(18.3413 -2.35682 -3.48288e-16)
(19.1994 -2.46767 1.61228e-16)
(20.0293 -2.50167 9.37932e-16)
(20.8336 -2.46372 1.21426e-16)
(21.6131 -2.3532 -8.82316e-17)
(22.3644 -2.16474 -5.33285e-16)
(23.074 -1.89105 0)
(23.7151 -1.53701 2.23049e-17)
(24.266 -1.12855 5.91779e-16)
(24.7246 -0.688405 -3.15853e-18)
(25.0963 -0.229014 3.13252e-18)
(25.3837 0.239431 0)
(25.5887 0.705998 -3.80275e-17)
(25.7145 1.16099 0)
(25.7656 1.59655 0)
(25.7451 2.00677 1.51159e-16)
(25.6557 2.38716 2.20155e-16)
(25.4893 2.73576 0)
(25.2473 3.04859 7.90092e-16)
(24.8383 3.32519 -4.70062e-15)
(24.3473 3.47086 2.17589e-17)
(22.9971 3.46157 4.77833e-15)
(15.1628 17.0912 -2.94386e-19)
(16.06 18.0061 -1.19462e-17)
(17.1336 18.9255 -3.08842e-18)
(18.3492 19.7941 3.01055e-18)
(19.6663 20.5464 9.10091e-17)
(21.1209 21.188 0)
(22.6756 21.6854 -3.49374e-16)
(24.2973 22.0093 9.31355e-18)
(25.9737 22.1479 -3.4498e-16)
(27.6719 22.0892 -6.96408e-16)
(29.3633 21.8258 0)
(31.0236 21.3562 -1.66989e-15)
(32.6225 20.6843 -1.42945e-15)
(34.1326 19.8177 -3.46928e-15)
(35.5288 18.7687 0)
(36.786 17.5538 -2.12946e-15)
(37.8811 16.1933 -2.22929e-15)
(38.7955 14.7066 2.40841e-15)
(39.5126 13.1183 -2.3675e-15)
(40.0168 11.4623 2.19167e-15)
(40.2975 9.7782 2.68924e-16)
(40.3514 8.11391 -2.3151e-15)
(40.1878 6.51761 0)
(39.8311 5.03413 -1.98361e-15)
(39.3231 3.69585 1.16315e-16)
(38.7139 2.49626 8.62924e-16)
(38.0331 1.40486 0)
(37.286 0.410606 -2.95476e-17)
(36.4767 -0.485717 6.33247e-17)
(35.6145 -1.28664 2.43395e-15)
(34.7063 -1.9941 -2.25612e-15)
(33.755 -2.60829 -3.91882e-15)
(32.7569 -3.12886 3.32247e-15)
(31.703 -3.55425 -6.13565e-17)
(30.5553 -3.87949 4.44887e-15)
(29.2859 -4.0871 6.21809e-15)
(27.6838 -4.14618 3.6018e-15)
(25.88 -3.87403 -1.14171e-17)
(22.1936 -3.32537 -3.58062e-18)
(14.3877 16.1429 9.79514e-18)
(13.681 15.135 1.25382e-16)
(13.0145 13.9394 1.72736e-16)
(12.4011 12.5835 -3.23138e-16)
(11.9312 11.1272 -1.29191e-15)
(11.6198 9.57611 4.25476e-16)
(11.4936 7.97482 1.11041e-15)
(11.5627 6.40603 2.89981e-15)
(11.8224 4.92819 1.17237e-15)
(12.2564 3.56929 -1.09978e-15)
(12.8311 2.35754 -3.80765e-17)
(13.5111 1.31144 -5.33898e-16)
(14.2684 0.427216 0)
(15.0764 -0.30463 -2.59447e-17)
(15.9112 -0.892988 -8.72298e-16)
(16.7561 -1.35269 3.81495e-16)
(17.5981 -1.69806 -3.74041e-16)
(18.4279 -1.94276 0)
(19.2408 -2.09857 5.68367e-16)
(20.0353 -2.17424 -9.92891e-16)
(20.8109 -2.17423 0)
(21.5663 -2.0988 7.29283e-16)
(22.2966 -1.94443 0)
(22.9891 -1.70654 -2.78349e-17)
(23.6202 -1.38953 2.75453e-17)
(24.1689 -1.01468 -2.89249e-16)
(24.6303 -0.603225 -5.22761e-18)
(25.0076 -0.168199 -3.19155e-18)
(25.3025 0.279749 8.50505e-19)
(25.5161 0.729437 -4.86584e-17)
(25.6512 1.17073 -7.05709e-17)
(25.7116 1.59551 1.09404e-16)
(25.7001 1.99743 3.0813e-18)
(25.619 2.37122 2.58962e-17)
(25.4606 2.714 0)
(25.2257 3.01969 1.50513e-17)
(24.8286 3.28669 2.1734e-15)
(24.3484 3.41048 -1.04565e-17)
(23.1152 3.37477 4.37125e-15)
(16.2196 16.1347 3.67454e-18)
(17.0419 16.9599 1.78396e-17)
(18.0244 17.7931 0)
(19.1327 18.582 -2.53955e-17)
(20.3263 19.2677 3.85669e-17)
(21.6442 19.8597 0)
(23.0523 20.327 -1.29971e-16)
(24.5219 20.6436 1.00465e-15)
(26.0459 20.799 -1.38155e-15)
(27.5974 20.7808 4.40815e-16)
(29.1525 20.5799 5.93335e-16)
(30.6918 20.1921 2.12833e-15)
(32.1887 19.617 1.51853e-15)
(33.6182 18.8575 1.80395e-15)
(34.9555 17.9214 4.74968e-16)
(36.1754 16.8206 1.56608e-15)
(37.2539 15.5715 2.14168e-15)
(38.1688 14.1956 2.06466e-15)
(38.898 12.7231 -1.51638e-15)
(39.4251 11.1848 -4.63517e-15)
(39.7399 9.61501 0)
(39.8399 8.05314 8.49583e-17)
(39.733 6.54113 1.80234e-15)
(39.4403 5.11885 1.88809e-15)
(38.9965 3.81649 -1.07202e-16)
(38.4431 2.63483 -7.78995e-16)
(37.8079 1.55306 5.58221e-18)
(37.0982 0.562734 -3.95478e-16)
(36.3183 -0.333999 4.1613e-17)
(35.4764 -1.13767 -4.56706e-15)
(34.5798 -1.84907 -7.73157e-18)
(33.6336 -2.46752 -6.16279e-17)
(32.6399 -2.99218 -3.19547e-15)
(31.5995 -3.42145 -6.10532e-17)
(30.4908 -3.75152 -4.15512e-15)
(29.3102 -3.96623 -1.18893e-14)
(27.8783 -4.04021 3.41179e-15)
(26.3697 -3.7779 6.5635e-16)
(23.2036 -3.28556 2.85202e-15)
(15.5043 15.2809 -4.52623e-17)
(14.8503 14.3772 -1.71078e-16)
(14.2246 13.3032 -1.25451e-16)
(13.6399 12.0832 -3.20466e-16)
(13.1783 10.7748 7.22412e-16)
(12.8513 9.37821 -5.23406e-17)
(12.6831 7.92871 -2.8497e-15)
(12.6861 6.50179 -1.00008e-15)
(12.8579 5.15263 1.37504e-17)
(13.184 3.90157 0)
(13.6384 2.77238 -9.42322e-16)
(14.1931 1.78215 8.81651e-16)
(14.827 0.928131 -8.51469e-16)
(15.5191 0.204071 -4.36926e-16)
(16.2498 -0.394617 3.6631e-16)
(17.0048 -0.878053 3.63909e-16)
(17.7717 -1.25558 1.31029e-15)
(18.5403 -1.53654 -3.10425e-16)
(19.3042 -1.72954 -5.30974e-16)
(20.0593 -1.84153 0)
(20.8027 -1.87618 -8.10304e-16)
(21.531 -1.8341 -6.0535e-16)
(22.2383 -1.71286 -1.19511e-17)
(22.9121 -1.50982 -6.55426e-17)
(23.5312 -1.22909 -2.17181e-17)
(24.0754 -0.887887 3.32702e-16)
(24.5377 -0.505808 -6.53178e-18)
(24.9189 -0.0961585 5.27423e-17)
(25.2201 0.330153 9.54132e-18)
(25.4415 0.761833 4.45966e-17)
(25.5852 1.18841 -1.02049e-17)
(25.6545 1.60125 -2.36736e-16)
(25.6518 1.99342 -2.20921e-16)
(25.579 2.35896 -2.18995e-16)
(25.4285 2.69424 -9.3908e-18)
(25.2008 2.99133 5.2272e-18)
(24.8154 3.24723 -2.1806e-15)
(24.3469 3.35023 -3.02806e-15)
(23.2115 3.28868 -4.01861e-15)
(17.1334 15.2886 -1.12235e-17)
(17.8914 16.0376 -6.2621e-18)
(18.7959 16.7965 -7.78129e-18)
(19.8123 17.5169 -4.38102e-17)
(20.9007 18.1442 7.14379e-17)
(22.1009 18.6914 -1.57885e-16)
(23.3816 19.1302 4.94555e-16)
(24.7169 19.4375 0)
(26.1041 19.6049 4.21678e-16)
(27.5198 19.6204 1.06977e-17)
(28.9449 19.4747 -5.09691e-16)
(30.3646 19.1619 -1.96264e-15)
(31.7557 18.6793 -7.93394e-16)
(33.0959 18.0263 0)
(34.3628 17.2069 0)
(35.5319 16.229 0)
(36.5791 15.1055 0)
(37.4818 13.8537 -2.00062e-15)
(38.2197 12.4945 1.98419e-15)
(38.7744 11.0551 1.94072e-15)
(39.1328 9.56902 -1.56088e-15)
(39.289 8.07575 1.36792e-15)
(39.2469 6.61727 -1.40939e-15)
(39.023 5.23338 -1.03109e-16)
(38.646 3.95366 -4.69119e-17)
(38.1513 2.78288 7.88722e-16)
(37.5653 1.70676 1.69707e-16)
(36.8984 0.718633 0)
(36.1558 -0.179043 0)
(35.3452 -0.985557 3.83073e-17)
(34.4731 -1.70104 0)
(33.5441 -2.32415 3.40307e-15)
(32.5598 -2.85329 -3.02447e-15)
(31.5228 -3.28591 -4.88176e-15)
(30.417 -3.61792 7.75769e-15)
(29.2532 -3.83187 5.66518e-15)
(27.8846 -3.90756 -3.25959e-15)
(26.5539 -3.64132 -1.27596e-15)
(23.9034 -3.19446 -2.73485e-15)
(16.4701 14.5146 0)
(15.862 13.6981 4.78208e-17)
(15.2729 12.726 2.39197e-16)
(14.7151 11.6201 -1.03579e-15)
(14.2646 10.436 9.12849e-16)
(13.9293 9.16956 -7.47238e-16)
(13.7325 7.84911 6.80796e-18)
(13.6874 6.54531 7.58748e-16)
(13.7925 5.30972 8.07815e-16)
(14.0354 4.15693 0)
(14.3947 3.10704 3.91094e-16)
(14.8476 2.17562 -1.19599e-15)
(15.3779 1.35978 1.90027e-15)
(15.9692 0.654803 3.46993e-16)
(16.6059 0.0582377 -7.06927e-16)
(17.2763 -0.436595 -6.59332e-16)
(17.9695 -0.835453 -6.06971e-16)
(18.6758 -1.14413 0)
(19.3879 -1.36819 0)
(20.1003 -1.5124 0)
(20.8082 -1.57932 7.61658e-16)
(21.5067 -1.56932 0)
(22.1888 -1.48056 -4.92976e-16)
(22.8423 -1.31162 -6.315e-17)
(23.4476 -1.06619 -3.82411e-16)
(23.9852 -0.758377 -2.95113e-16)
(24.4466 -0.405893 0)
(24.8305 -0.0220578 -4.40153e-17)
(25.1369 0.38208 -1.01328e-17)
(25.3654 0.795139 1.89376e-18)
(25.5172 1.20637 1.57796e-16)
(25.5952 1.6067 -1.7503e-17)
(25.6011 1.98872 2.14573e-16)
(25.5366 2.34576 -2.5542e-16)
(25.3942 2.67334 0)
(25.1741 2.9617 -1.44193e-17)
(24.801 3.20625 -3.35312e-17)
(24.3463 3.29036 2.87912e-15)
(23.3007 3.20487 -2.41501e-17)
(17.9368 14.5304 1.3728e-17)
(18.6408 15.213 0)
(19.4798 15.9065 3.69421e-17)
(20.4193 16.5653 -2.34697e-18)
(21.4199 17.1393 -4.07077e-17)
(22.5217 17.643 1.48247e-16)
(23.695 18.0508 -2.18674e-16)
(24.9166 18.3425 -2.59611e-16)
(26.1864 18.511 0)
(27.4842 18.5453 -4.41229e-16)
(28.7947 18.4364 -4.7032e-16)
(30.1064 18.1779 4.66815e-16)
(31.3997 17.7652 1.73411e-15)
(32.6556 17.1954 6.91557e-16)
(33.8537 16.4694 -2.09094e-15)
(34.9708 15.592 -1.50206e-15)
(35.9838 14.5723 1.18021e-15)
(36.8701 13.4243 8.69069e-16)
(37.6083 12.1677 -4.34367e-16)
(38.1782 10.8288 4.3257e-16)
(38.5656 9.43752 1.09755e-15)
(38.7633 8.02907 2.0423e-16)
(38.7727 6.64142 -1.91752e-16)
(38.607 5.31148 -1.27544e-15)
(38.2893 4.06739 0)
(37.8489 2.91711 -6.68449e-16)
(37.3102 1.85299 -3.19103e-16)
(36.6852 0.871381 -2.94355e-16)
(35.9804 -0.0242501 -1.08884e-15)
(35.2035 -0.831712 4.07674e-15)
(34.3611 -1.55009 1.67894e-15)
(33.4573 -2.17737 3.89314e-18)
(32.4929 -2.71105 3.89513e-17)
(31.4693 -3.14756 0)
(30.3706 -3.48182 -3.66571e-15)
(29.2091 -3.69398 0)
(27.8549 -3.76708 0)
(26.577 -3.48741 6.16054e-16)
(24.3358 -3.06268 4.39545e-18)
(17.3175 13.8252 -4.64949e-17)
(16.7484 13.0834 1.60771e-16)
(16.1912 12.1986 1.06565e-17)
(15.6582 11.1904 2.30423e-16)
(15.2201 10.1123 -8.37995e-16)
(14.8815 8.95683 6.29663e-16)
(14.6652 7.74753 3.61895e-17)
(14.5849 6.55161 -6.33412e-16)
(14.6392 5.41626 -6.24219e-16)
(14.8173 4.35227 -6.67363e-16)
(15.1009 3.37702 -1.33064e-15)
(15.4711 2.50445 0)
(15.9148 1.73095 -6.86819e-16)
(16.4192 1.05231 -2.4539e-17)
(16.972 0.467304 0)
(17.5643 -0.0288945 -5.82172e-16)
(18.187 -0.439377 -2.77703e-16)
(18.8314 -0.767328 -2.62128e-16)
(19.4905 -1.01579 9.08079e-16)
(20.158 -1.18735 8.13053e-16)
(20.8279 -1.28309 -8.48199e-17)
(21.4942 -1.30295 6.32976e-16)
(22.1492 -1.24525 1.26868e-16)
(22.7808 -1.1091 -6.07115e-17)
(23.3705 -0.897807 3.41335e-16)
(23.8996 -0.622958 2.08731e-17)
(24.3581 -0.300224 0)
(24.7433 0.0573498 0)
(25.0537 0.438641 -1.98206e-18)
(25.2884 0.832298 5.03488e-18)
(25.4479 1.22737 -1.73098e-16)
(25.5341 1.61438 -1.70473e-17)
(25.5485 1.98548 2.71715e-16)
(25.4924 2.33325 2.44632e-16)
(25.3582 2.65242 1.09306e-17)
(25.1461 2.93152 3.6228e-18)
(24.7862 3.16431 4.04942e-15)
(24.3467 3.23097 -2.74952e-15)
(23.3869 3.12413 2.25382e-17)
(18.6463 13.8455 5.24094e-18)
(19.3035 14.4702 0)
(20.0858 15.1058 -2.49631e-17)
(20.9589 15.7098 0)
(21.8837 16.2358 -8.87801e-17)
(22.9005 16.6993 8.60376e-17)
(23.9809 17.0772 1.6681e-16)
(25.1034 17.3516 2.44964e-16)
(26.2697 17.5167 0)
(27.4623 17.5629 -2.95227e-16)
(28.6687 17.4819 4.82311e-16)
(29.8805 17.2671 -9.87086e-16)
(31.081 16.9132 -5.51036e-16)
(32.2541 16.4159 -5.58376e-16)
(33.3819 15.774 1.33291e-15)
(34.4432 14.9894 1.43681e-15)
(35.4162 14.0684 -1.5342e-15)
(36.2788 13.0222 -1.52082e-15)
(37.0099 11.8663 0)
(37.5896 10.6227 3.97393e-16)
(38.0018 9.31856 -7.69397e-16)
(38.2373 7.98682 1.89585e-16)
(38.2951 6.66352 4.24554e-18)
(38.1842 5.38392 3.01739e-15)
(37.9232 4.175 -1.64968e-16)
(37.5358 3.04669 9.99924e-17)
(37.0441 1.9963 2.96325e-16)
(36.461 1.02295 3.13726e-16)
(35.7939 0.130973 9.41159e-16)
(35.0508 -0.676074 -1.8851e-15)
(34.2387 -1.39625 -1.54622e-15)
(33.362 -2.02685 -6.06707e-15)
(32.4218 -2.56465 5.22849e-15)
(31.4188 -3.00503 -7.40919e-17)
(30.3369 -3.34204 3.42848e-15)
(29.1859 -3.5532 -1.07369e-16)
(27.8459 -3.62397 5.98651e-17)
(26.56 -3.33094 3.88032e-18)
(24.591 -2.90514 -2.1087e-15)
(18.0654 13.2005 2.25639e-17)
(17.5307 12.523 -8.35684e-17)
(17.0022 11.7138 1.6594e-16)
(16.4922 10.7902 0)
(16.0671 9.80369 4.90314e-16)
(15.7289 8.74411 0)
(15.4996 7.63189 0)
(15.3934 6.53089 0)
(15.4088 5.48445 1.16267e-15)
(15.536 4.50063 -5.76854e-16)
(15.7592 3.59478 6.5156e-16)
(16.062 2.77941 0)
(16.4335 2.05005 0)
(16.8636 1.40229 -5.93943e-16)
(17.3424 0.835451 0)
(17.8636 0.345801 5.42428e-16)
(18.42 -0.0684353 1.271e-17)
(19.0043 -0.408342 0)
(19.6103 -0.67487 -6.49172e-16)
(20.2315 -0.86883 -9.63907e-16)
(20.8615 -0.989976 -6.72577e-16)
(21.4936 -1.03738 -5.87554e-16)
(22.1197 -1.0091 1.00965e-15)
(22.7279 -0.904345 0)
(23.3003 -0.725989 3.4177e-16)
(23.8189 -0.483372 3.19249e-16)
(24.2729 -0.190275 1.21134e-16)
(24.6578 0.140782 0)
(24.9711 0.498744 -9.50605e-18)
(25.2111 0.872347 -5.96628e-17)
(25.3775 1.25056 1.81227e-16)
(25.4717 1.62357 -1.65628e-17)
(25.4945 1.98309 -2.49004e-16)
(25.4467 2.32104 2.68645e-16)
(25.321 2.63128 -2.04456e-18)
(25.1173 2.90077 1.06623e-17)
(24.7713 3.12147 -3.94381e-15)
(24.3481 3.17242 2.57543e-15)
(23.4706 3.04708 6.27144e-15)
(19.2774 13.2223 2.13567e-18)
(19.8937 13.7957 -1.52338e-17)
(20.6264 14.3798 0)
(21.4416 14.9344 8.80106e-19)
(22.3009 15.4167 0)
(23.244 15.8427 0)
(24.2435 16.1917 1.84526e-17)
(25.2795 16.4474 2.1144e-16)
(26.3551 16.6054 4.86507e-16)
(27.4545 16.6572 1.23201e-15)
(28.5676 16.5956 6.92799e-16)
(29.6884 16.4142 7.95898e-16)
(30.8028 16.1074 0)
(31.8975 15.67 1.53713e-15)
(32.957 15.0991 -5.43685e-16)
(33.962 14.3949 0)
(34.8926 13.561 1.28119e-15)
(35.7276 12.6056 1.45729e-15)
(36.4465 11.5417 0)
(37.0293 10.3885 1.41337e-15)
(37.4588 9.17051 -1.38068e-15)
(37.7245 7.91737 0)
(37.8232 6.66193 -1.63398e-16)
(37.7609 5.43703 3.16415e-17)
(37.5518 4.26825 7.78298e-17)
(37.2149 3.16678 1.16575e-15)
(36.7692 2.13394 -3.98683e-18)
(36.2276 1.17176 -3.10435e-17)
(35.5983 0.285797 -2.61314e-17)
(34.8892 -0.519129 5.71834e-17)
(34.1076 -1.2398 1.55828e-15)
(33.2584 -1.87271 5.49182e-15)
(32.3431 -2.41388 4.31211e-17)
(31.3628 -2.85773 -3.99214e-15)
(30.3023 -3.19746 -3.11668e-15)
(29.1696 -3.4083 -4.61934e-15)
(27.8561 -3.47731 -2.70156e-15)
(26.5591 -3.17715 2.16911e-17)
(24.7581 -2.73681 1.9665e-15)
(18.7304 12.6301 -5.29494e-17)
(18.2261 12.0092 -2.01085e-16)
(17.7236 11.266 4.01513e-16)
(17.235 10.4165 0)
(16.823 9.50996 8.02366e-16)
(16.4878 8.53425 0)
(16.2505 7.50753 -4.54478e-16)
(16.1253 6.49064 1.8282e-15)
(16.1107 5.52337 -1.41819e-15)
(16.1979 4.61214 0)
(16.3725 3.77038 1.05804e-15)
(16.6202 3.00941 1.0259e-15)
(16.9315 2.32411 0)
(17.2981 1.70983 -1.0168e-15)
(17.7122 1.16579 2.47002e-16)
(18.1694 0.688479 -2.47119e-16)
(18.6644 0.277019 2.4135e-16)
(19.1914 -0.0684146 4.2537e-16)
(19.7451 -0.347275 -1.50862e-17)
(20.3196 -0.558823 5.18192e-16)
(20.9085 -0.701533 1.54701e-16)
(21.5049 -0.77359 -1.47431e-16)
(22.1007 -0.772662 -4.79252e-16)
(22.684 -0.697658 4.1357e-16)
(23.2375 -0.550756 -3.03489e-16)
(23.7438 -0.339509 -3.23643e-16)
(24.1914 -0.0758005 -1.1523e-16)
(24.5745 0.228581 -1.33251e-18)
(24.8895 0.562776 1.04099e-17)
(25.1339 0.915734 5.70585e-17)
(25.3067 1.27641 8.82038e-18)
(25.4083 1.63471 -1.60407e-17)
(25.4392 1.98197 3.03772e-16)
(25.3998 2.30944 -2.7555e-16)
(25.2827 2.61016 1.11491e-17)
(25.088 2.86963 -7.9396e-16)
(24.7567 3.0781 1.91536e-15)
(24.3508 3.11485 0)
(23.5518 2.97347 -6.01285e-15)
(19.8416 12.6518 8.69318e-18)
(20.4217 13.1794 0)
(21.1104 13.7173 0)
(21.8745 14.2275 -2.20406e-17)
(22.6762 14.6701 -1.95251e-17)
(23.5543 15.0616 0)
(24.4828 15.383 0)
(25.4425 15.6196 -6.99219e-16)
(26.4376 15.7686 -3.49346e-17)
(27.4539 15.8222 -4.21068e-17)
(28.4829 15.7742 -1.60323e-15)
(29.5206 15.6188 -4.16867e-16)
(30.5552 15.3504 7.92448e-16)
(31.5756 14.9636 -6.77062e-17)
(32.5687 14.4544 0)
(33.5174 13.8214 0)
(34.4037 13.0663 -3.51639e-15)
(35.2076 12.1949 -6.44061e-16)
(35.9093 11.2176 6.58114e-16)
(36.4897 10.15 -1.37134e-15)
(36.931 9.01406 2.60272e-15)
(37.2212 7.8364 1.23187e-15)
(37.3555 6.64719 -1.19142e-15)
(37.3368 5.47716 -1.34352e-15)
(37.1756 4.35044 2.12784e-16)
(36.8866 3.2787 -1.14876e-15)
(36.4859 2.26618 -1.29571e-16)
(35.9858 1.31761 2.88802e-17)
(35.3945 0.43973 -2.88456e-17)
(34.7199 -0.361325 9.69236e-17)
(33.9693 -1.08114 -4.00947e-17)
(33.148 -1.71532 -2.7134e-15)
(32.258 -2.25902 -1.02882e-16)
(31.3008 -2.70574 1.22204e-16)
(30.263 -3.04783 0)
(29.1517 -3.25872 4.29631e-15)
(27.8719 -3.32574 2.53055e-15)
(26.5821 -3.02498 0)
(24.8947 -2.56662 0)
(19.325 12.1065 0)
(18.8478 11.5355 1.80428e-16)
(18.3693 10.8507 -6.02922e-16)
(17.9007 10.0667 -2.94361e-16)
(17.5017 9.23065 -7.31678e-16)
(17.1715 8.32891 0)
(16.9295 7.37818 0)
(16.7905 6.43631 -8.18157e-16)
(16.7529 5.54001 8.58131e-16)
(16.8083 4.69439 0)
(16.9438 3.91149 -4.48865e-16)
(17.1462 3.20176 -4.85102e-16)
(17.4073 2.55962 4.6006e-16)
(17.7199 1.97982 4.78167e-16)
(18.0778 1.46126 -8.88792e-16)
(18.478 1.00055 0)
(18.9167 0.597021 -2.02136e-16)
(19.3897 0.251549 1.19893e-17)
(19.8928 -0.034411 8.99702e-16)
(20.421 -0.258957 -1.67918e-16)
(20.9684 -0.419413 1.61072e-16)
(21.5281 -0.513137 -1.23751e-16)
(22.0923 -0.537238 1.75385e-16)
(22.6493 -0.490145 -8.40036e-16)
(23.1825 -0.37316 -2.99912e-16)
(23.6748 -0.192183 2.62874e-16)
(24.1142 0.0426136 -1.61778e-17)
(24.4939 0.320352 0)
(24.8094 0.630527 -9.82376e-18)
(25.0572 0.962353 6.00496e-17)
(25.2356 1.30488 -9.22975e-17)
(25.3443 1.6478 1.62448e-16)
(25.3831 1.98212 -6.12753e-16)
(25.3519 2.29851 6.31238e-16)
(25.2438 2.58914 -9.57578e-18)
(25.0583 2.83825 7.52001e-16)
(24.7426 3.03427 3.48528e-17)
(24.3549 3.05851 -7.47882e-17)
(23.6306 2.90376 -5.39462e-15)
(20.3485 12.1267 -8.43048e-18)
(20.896 12.6134 0)
(21.5454 13.1096 0)
(22.2639 13.5792 1.79088e-17)