/*--------------------------------*- C++ -*----------------------------------*\
  =========                 |
  \\      /  F ield         | OpenFOAM: The Open Source CFD Toolbox
   \\    /   O peration     | Website:  https://openfoam.org
    \\  /    A nd           | Version:  7
     \\/     M anipulation  |
\*---------------------------------------------------------------------------*/
FoamFile
{
    version     2.0;
    format      ascii;
    class       volScalarField;
    location    "50";
    object      nut;
}
// * * * * * * * * * * * * * * * * * * * * * * * * * * * * * * * * * * * * * //

dimensions      [0 2 -1 0 0 0 0];

internalField   nonuniform List<scalar> 
10720
(
0.0813576
0.085681
0.0903719
0.0952849
0.10077
0.10682
0.113576
0.120986
0.129059
0.137568
0.146182
0.154597
0.162288
0.16891
0.17404
0.177496
0.179383
0.179974
0.179417
0.177914
0.175475
0.172179
0.168068
0.163355
0.158401
0.153466
0.148559
0.143557
0.138368
0.132985
0.127409
0.121618
0.115581
0.109252
0.102441
0.095026
0.085905
0.0757101
0.0532434
0.0771992
0.0724173
0.0668857
0.0594956
0.0502246
0.0406661
0.0386265
0.0371693
0.045214
0.0524272
0.0580961
0.0629662
0.0675388
0.0720338
0.0764619
0.0807637
0.0848523
0.0886694
0.0921951
0.0954696
0.0985592
0.10153
0.104429
0.107256
0.109805
0.111841
0.113348
0.114387
0.115041
0.115313
0.115337
0.115144
0.114691
0.113941
0.112839
0.111411
0.109224
0.106868
0.0977245
0.101035
0.100578
0.0997988
0.0987005
0.0975044
0.0961132
0.0945886
0.0930574
0.0915536
0.0901511
0.0892181
0.0893832
0.0905467
0.0924247
0.0951145
0.0986256
0.103092
0.10834
0.114246
0.120474
0.126873
0.132996
0.138489
0.142768
0.14517
0.14576
0.144956
0.143066
0.140387
0.137146
0.13351
0.129594
0.125488
0.121278
0.117065
0.112931
0.109187
0.105125
0.102691
0.101495
0.101616
0.101917
0.101728
0.101251
0.100301
0.0984763
0.0961006
0.0928131
0.0890945
0.0851562
0.081171
0.0772874
0.07357
0.07014
0.0670366
0.0642997
0.0619437
0.0599707
0.058358
0.057088
0.0561407
0.0554925
0.055117
0.0549906
0.0550625
0.05526
0.0555345
0.0559823
0.0574324
0.0601107
0.0634531
0.0668423
0.0698766
0.0723938
0.0745463
0.0762865
0.0797386
0.0829036
0.122197
0.122043
0.121671
0.121068
0.120352
0.119427
0.118293
0.117007
0.115514
0.11384
0.112003
0.110002
0.107872
0.105646
0.103347
0.101052
0.0987418
0.0965968
0.0948129
0.0935777
0.0930807
0.0933798
0.0943791
0.0960186
0.0983582
0.103745
0.109891
0.115626
0.120528
0.12443
0.127306
0.129229
0.130338
0.130785
0.13074
0.130221
0.129903
0.127155
0.132872
0.122314
0.122241
0.122178
0.121878
0.121379
0.120678
0.119719
0.118405
0.116772
0.114774
0.112398
0.109708
0.10676
0.103588
0.100287
0.0968993
0.0934853
0.0900897
0.0867643
0.0835202
0.080395
0.0773955
0.0745155
0.0716616
0.0687866
0.0659523
0.0631989
0.0605642
0.0580945
0.055809
0.0540817
0.0537889
0.0547163
0.0564382
0.0586238
0.0611645
0.0639764
0.0668252
0.072071
0.129491
0.129399
0.129201
0.128895
0.12852
0.128034
0.12743
0.126729
0.125898
0.124945
0.123867
0.122648
0.12128
0.119763
0.11808
0.116281
0.114314
0.11201
0.109332
0.106352
0.10311
0.099746
0.0964626
0.0935444
0.0911335
0.0896112
0.0892559
0.0903112
0.0944832
0.100091
0.106324
0.112687
0.118835
0.124555
0.129795
0.134449
0.139265
0.141102
0.149542
0.129537
0.129509
0.129454
0.129296
0.129021
0.128636
0.128103
0.127377
0.126468
0.125343
0.12399
0.122423
0.120649
0.118662
0.116497
0.114167
0.111701
0.109129
0.106486
0.103787
0.101061
0.098313
0.0955399
0.0926572
0.0895995
0.0864129
0.0831274
0.0797796
0.0764047
0.0730378
0.0696974
0.0664949
0.0635812
0.0610175
0.0592588
0.0592415
0.0603365
0.0616547
0.0653053
0.133093
0.133033
0.132905
0.132711
0.13247
0.132159
0.131778
0.131334
0.130809
0.130205
0.129516
0.128729
0.127834
0.126824
0.12568
0.124392
0.122934
0.12129
0.119429
0.117311
0.114869
0.112067
0.10889
0.105422
0.101856
0.0983409
0.0950037
0.0919842
0.0898769
0.0888953
0.0909602
0.0952932
0.101324
0.108668
0.117003
0.12594
0.135925
0.144549
0.156385
0.133108
0.133086
0.133036
0.132931
0.132747
0.132504
0.132174
0.131737
0.131188
0.130508
0.129691
0.128741
0.127657
0.126428
0.125066
0.123569
0.121945
0.120201
0.118353
0.116404
0.11437
0.112251
0.11004
0.107668
0.105074
0.10228
0.0993004
0.0961551
0.0928649
0.0894573
0.0859576
0.0823923
0.0787982
0.0752114
0.0716996
0.068443
0.0656411
0.0633778
0.063219
0.135108
0.135067
0.134983
0.134855
0.1347
0.134503
0.134265
0.133988
0.133663
0.133287
0.132856
0.132362
0.131798
0.131156
0.130421
0.129583
0.128623
0.127524
0.126249
0.124777
0.123063
0.121077
0.118772
0.116134
0.113224
0.11008
0.106706
0.10314
0.0994855
0.0958577
0.0929377
0.0911031
0.092316
0.0961585
0.102591
0.111635
0.123817
0.138281
0.155055
0.135106
0.135089
0.135049
0.134977
0.134845
0.134683
0.134468
0.134184
0.133827
0.133388
0.132859
0.132247
0.131547
0.130752
0.129867
0.128886
0.127811
0.126641
0.125382
0.124032
0.122594
0.121064
0.11943
0.117639
0.115637
0.113428
0.111011
0.108391
0.105572
0.102566
0.0993841
0.0960431
0.0925593
0.0889496
0.0852277
0.0813792
0.0774416
0.073219
0.0674268
0.136345
0.136319
0.136261
0.136177
0.136077
0.135953
0.135802
0.135626
0.135416
0.135169
0.134882
0.134547
0.134162
0.133718
0.133206
0.132619
0.13194
0.131158
0.130259
0.129227
0.128029
0.126642
0.125033
0.123177
0.121088
0.11882
0.1164
0.113752
0.110727
0.107274
0.103539
0.0997042
0.0963652
0.0950624
0.0965388
0.101203
0.110416
0.126041
0.147081
0.136334
0.13632
0.136289
0.136241
0.136144
0.136032
0.135888
0.135696
0.135455
0.135157
0.1348
0.134387
0.133915
0.133378
0.13278
0.132115
0.131382
0.130581
0.129711
0.128769
0.127756
0.126664
0.125481
0.124167
0.122679
0.121009
0.11915
0.117093
0.114834
0.112368
0.109694
0.106817
0.10374
0.10047
0.0970081
0.093318
0.0893018
0.0850032
0.0765702
0.137151
0.137135
0.137099
0.137049
0.136993
0.136923
0.136836
0.13673
0.136598
0.136438
0.136247
0.13602
0.135756
0.135449
0.135092
0.134681
0.134203
0.13365
0.133007
0.13226
0.131388
0.130374
0.129197
0.127847
0.126387
0.124917
0.123431
0.121847
0.120045
0.117889
0.115257
0.112071
0.108246
0.104281
0.101395
0.100578
0.103419
0.113976
0.135232
0.137132
0.13712
0.137097
0.137068
0.136997
0.136921
0.136823
0.136692
0.136526
0.13632
0.136072
0.135786
0.135458
0.135085
0.134669
0.134204
0.133691
0.133126
0.132511
0.131841
0.131115
0.130326
0.129464
0.128499
0.127397
0.126149
0.124745
0.123172
0.121418
0.119473
0.117325
0.114969
0.112397
0.109603
0.106577
0.103286
0.0995667
0.0956738
0.0870348
0.137697
0.137691
0.137672
0.137649
0.137627
0.137596
0.137553
0.137493
0.13741
0.137305
0.137175
0.137019
0.136834
0.136618
0.136365
0.136071
0.135728
0.135328
0.134861
0.134319
0.133686
0.132948
0.132102
0.131182
0.130243
0.129314
0.128372
0.127384
0.126297
0.125038
0.123498
0.121549
0.118996
0.115685
0.111831
0.107976
0.105407
0.107721
0.123657
0.137673
0.137661
0.137643
0.137628
0.137581
0.137531
0.137465
0.137376
0.137262
0.137119
0.136946
0.136746
0.136516
0.136252
0.135957
0.135626
0.13526
0.134855
0.134411
0.133925
0.133396
0.132817
0.13218
0.131462
0.130639
0.129702
0.12864
0.127442
0.126095
0.124584
0.122896
0.121018
0.118936
0.116636
0.114097
0.111287
0.108018
0.104615
0.0967264
0.138078
0.13808
0.138075
0.138075
0.138078
0.138075
0.138059
0.138028
0.137979
0.137912
0.137827
0.137723
0.1376
0.137455
0.137285
0.137086
0.136852
0.136577
0.136252
0.135876
0.135455
0.134998
0.134498
0.133953
0.133376
0.132778
0.132148
0.131476
0.130745
0.129928
0.12898
0.127825
0.126332
0.124279
0.121444
0.117601
0.113094
0.108927
0.116214
0.138048
0.138035
0.138021
0.138018
0.137992
0.137962
0.137919
0.13786
0.137783
0.137686
0.137567
0.137428
0.137267
0.13708
0.13687
0.136633
0.136368
0.136075
0.135751
0.135395
0.135004
0.134573
0.134096
0.133556
0.132933
0.132221
0.131411
0.130493
0.129454
0.128282
0.126963
0.125482
0.123824
0.12197
0.119894
0.117565
0.114791
0.111897
0.105039
0.138349
0.138357
0.138365
0.138382
0.138403
0.138416
0.138418
0.138406
0.13838
0.138343
0.138293
0.138233
0.138163
0.138081
0.137986
0.137874
0.137742
0.137585
0.137399
0.137195
0.136977
0.136739
0.136468
0.136158
0.135814
0.135439
0.135027
0.134572
0.134066
0.1335
0.132858
0.132114
0.131207
0.130012
0.128321
0.125645
0.121809
0.115243
0.114479
0.138314
0.1383
0.138289
0.138297
0.138287
0.138273
0.138248
0.138211
0.138162
0.138098
0.138019
0.137924
0.137813
0.137683
0.137535
0.137366
0.137176
0.136964
0.136727
0.136465
0.136174
0.135852
0.135491
0.13508
0.134603
0.134056
0.133431
0.13272
0.131913
0.130999
0.129965
0.128797
0.127482
0.126
0.124324
0.122427
0.120126
0.117726
0.111934
0.138543
0.138556
0.138573
0.138604
0.138636
0.138659
0.138671
0.138674
0.138668
0.138655
0.138638
0.138619
0.1386
0.138581
0.138561
0.138536
0.138504
0.138458
0.138391
0.138306
0.138203
0.138078
0.137927
0.137747
0.137545
0.137321
0.137068
0.136783
0.136458
0.136085
0.135657
0.135163
0.13458
0.133853
0.1329
0.131295
0.128858
0.12314
0.117478
0.138505
0.13849
0.138484
0.138502
0.138504
0.138501
0.13849
0.138469
0.138441
0.138402
0.138353
0.138291
0.138218
0.13813
0.138028
0.137911
0.137778
0.137626
0.137455
0.137263
0.137047
0.136805
0.136532
0.136216
0.135849
0.135424
0.134937
0.134382
0.133748
0.133029
0.132213
0.131288
0.130242
0.129059
0.127712
0.126181
0.124294
0.122345
0.117546
0.138684
0.1387
0.138726
0.138766
0.138804
0.138833
0.138854
0.138869
0.13888
0.138891
0.138905
0.138926
0.138952
0.138981
0.139008
0.139028
0.139038
0.139037
0.139019
0.138989
0.138949
0.138896
0.138827
0.138739
0.138635
0.138516
0.138381
0.138225
0.138044
0.137832
0.137581
0.137284
0.136929
0.136487
0.135953
0.135042
0.133699
0.130113
0.122989
0.138647
0.138633
0.138631
0.138657
0.138668
0.138673
0.13867
0.138662
0.13865
0.13863
0.138602
0.138566
0.138521
0.138466
0.1384
0.138322
0.138231
0.138126
0.138005
0.137866
0.137708
0.137528
0.137321
0.137079
0.136794
0.136463
0.136082
0.135644
0.135144
0.134573
0.133925
0.133188
0.132353
0.131406
0.130324
0.129095
0.127559
0.126043
0.122156
0.138791
0.13881
0.138845
0.138892
0.138933
0.138965
0.138994
0.139019
0.139048
0.139081
0.139121
0.139168
0.139216
0.139262
0.139303
0.139335
0.13936
0.139376
0.139382
0.139378
0.139369
0.139355
0.139333
0.139302
0.139261
0.139213
0.139156
0.13909
0.139012
0.138919
0.138806
0.138666
0.138492
0.138261
0.137993
0.137512
0.136783
0.135185
0.128943
0.138757
0.138746
0.138749
0.138781
0.138797
0.138805
0.138808
0.138809
0.138808
0.138803
0.138792
0.138776
0.138753
0.138722
0.138684
0.138637
0.138578
0.138509
0.138426
0.138328
0.138214
0.138081
0.137925
0.137741
0.137521
0.137263
0.136963
0.136618
0.136221
0.135767
0.13525
0.134662
0.133996
0.13324
0.13238
0.131416
0.130236
0.129194
0.126164
0.138881
0.138904
0.13895
0.139
0.139041
0.139077
0.139111
0.139147
0.13919
0.139237
0.139289
0.139342
0.139393
0.139438
0.13948
0.139515
0.139545
0.139568
0.139586
0.139596
0.139605
0.139611
0.139615
0.139616
0.139613
0.139606
0.139597
0.139585
0.139572
0.139555
0.139534
0.139505
0.139464
0.139393
0.139315
0.139127
0.13871
0.138414
0.13406
0.138853
0.138846
0.138852
0.138887
0.138903
0.138911
0.138917
0.138923
0.138932
0.138938
0.138941
0.13894
0.138935
0.138924
0.138907
0.138883
0.13885
0.138807
0.138753
0.138686
0.138606
0.138509
0.138393
0.138253
0.138084
0.137884
0.13765
0.137378
0.137066
0.136708
0.136301
0.135838
0.135319
0.134742
0.134112
0.133437
0.13263
0.131944
0.129634
0.138968
0.138997
0.139057
0.139104
0.139142
0.139181
0.13922
0.139262
0.13931
0.139358
0.139408
0.139456
0.139502
0.139545
0.139584
0.139619
0.139651
0.139678
0.139702
0.139721
0.139739
0.139757
0.139776
0.139795
0.139812
0.13983
0.139848
0.139867
0.13989
0.139918
0.13995
0.139988
0.140031
0.140069
0.140122
0.140143
0.139916
0.140266
0.137847
0.138945
0.138941
0.13895
0.138986
0.138998
0.139003
0.139007
0.139017
0.139033
0.139049
0.139063
0.139075
0.139084
0.139089
0.139089
0.139082
0.139068
0.139045
0.139013
0.138969
0.138914
0.138844
0.138759
0.138654
0.138525
0.138372
0.138193
0.137985
0.137747
0.137478
0.137176
0.136843
0.136487
0.136111
0.13571
0.135275
0.134728
0.134256
0.132517
0.13906
0.1391
0.139169
0.139207
0.139243
0.139283
0.139321
0.139361
0.139405
0.139448
0.139491
0.139533
0.139573
0.139611
0.139647
0.139681
0.139712
0.139741
0.139768
0.139792
0.139815
0.139841
0.139868
0.139898
0.139928
0.13996
0.139993
0.140031
0.140074
0.140125
0.140185
0.140259
0.140349
0.140449
0.140582
0.14074
0.140664
0.141232
0.140328
0.139037
0.139037
0.139049
0.139084
0.13909
0.139088
0.139089
0.139101
0.139123
0.139147
0.139171
0.139194
0.139215
0.139231
0.139243
0.139248
0.139247
0.139238
0.139221
0.139195
0.139158
0.13911
0.139049
0.138973
0.138878
0.138767
0.138637
0.138491
0.138331
0.138157
0.137973
0.137776
0.137569
0.137346
0.137097
0.136814
0.136439
0.136109
0.134828
0.13916
0.139211
0.139281
0.13931
0.139342
0.139378
0.139411
0.139445
0.13948
0.139516
0.139551
0.139585
0.13962
0.139653
0.139685
0.139716
0.139746
0.139775
0.139803
0.13983
0.139857
0.139886
0.139919
0.139955
0.139994
0.140034
0.140077
0.140125
0.14018
0.140243
0.140318
0.140409
0.140521
0.140652
0.140826
0.141059
0.141108
0.141687
0.141763
0.139133
0.139135
0.139148
0.139184
0.139182
0.139172
0.139169
0.139184
0.139211
0.139242
0.139274
0.139305
0.139333
0.139356
0.139375
0.139388
0.139395
0.139395
0.139389
0.139375
0.139353
0.139322
0.139281
0.139229
0.139166
0.139095
0.139017
0.138934
0.138849
0.13876
0.138664
0.138557
0.138441
0.138309
0.138156
0.137975
0.137724
0.137502
0.136598
0.139263
0.139321
0.139385
0.139407
0.139434
0.139463
0.139487
0.139514
0.139541
0.139567
0.139595
0.139623
0.139651
0.139679
0.139708
0.139736
0.139764
0.139792
0.13982
0.139848
0.139876
0.139908
0.139944
0.139984
0.140027
0.140073
0.140122
0.140177
0.140238
0.140309
0.140391
0.140489
0.14061
0.140754
0.140943
0.141207
0.14135
0.141868
0.142467
0.139229
0.139231
0.139245
0.139284
0.139277
0.139258
0.139252
0.13927
0.139303
0.139337
0.139374
0.139408
0.139438
0.139463
0.139486
0.139502
0.139514
0.13952
0.139521
0.139516
0.139505
0.139487
0.139463
0.139434
0.139401
0.139366
0.13933
0.139293
0.139254
0.139211
0.139163
0.139105
0.13904
0.138965
0.138875
0.138766
0.138609
0.138472
0.137875
0.139364
0.139422
0.139478
0.139495
0.139516
0.139537
0.139554
0.139572
0.139591
0.13961
0.13963
0.139652
0.139674
0.139698
0.139722
0.139746
0.139772
0.139798
0.139825
0.139852
0.139881
0.139913
0.13995
0.139992
0.140037
0.140087
0.14014
0.140199
0.140265
0.14034
0.140426
0.140527
0.14065
0.140797
0.140989
0.141256
0.141459
0.141908
0.142715
0.139322
0.139321
0.139336
0.139379
0.139369
0.139346
0.139339
0.139362
0.139396
0.139429
0.139463
0.139493
0.13952
0.139544
0.139566
0.139584
0.1396
0.139611
0.139618
0.13962
0.139618
0.139611
0.139601
0.139589
0.139576
0.139565
0.139552
0.139538
0.139522
0.139504
0.13948
0.139451
0.139417
0.139377
0.139329
0.139269
0.139179
0.139105
0.13874
0.139454
0.139509
0.139558
0.139572
0.139587
0.139601
0.139611
0.139622
0.139633
0.139646
0.13966
0.139675
0.139693
0.139711
0.139731
0.139752
0.139775
0.139798
0.139823
0.139849
0.139876
0.139908
0.139944
0.139986
0.140033
0.140084
0.14014
0.140201
0.140269
0.140347
0.140435
0.140537
0.14066
0.140804
0.140992
0.141252
0.141487
0.14188
0.14271
0.139409
0.139403
0.139417
0.139466
0.139455
0.139431
0.139428
0.139453
0.139483
0.139509
0.139535
0.139558
0.13958
0.1396
0.13962
0.139637
0.139654
0.139668
0.13968
0.139688
0.139693
0.139695
0.139695
0.139694
0.139694
0.139694
0.139693
0.139691
0.139688
0.139682
0.139674
0.139663
0.139648
0.13963
0.139609
0.139581
0.139535
0.139503
0.139297
0.139531
0.139581
0.139624
0.139637
0.139648
0.139656
0.13966
0.139665
0.13967
0.139677
0.139686
0.139697
0.13971
0.139724
0.13974
0.139757
0.139776
0.139796
0.139819
0.139843
0.139868
0.139897
0.139932
0.139973
0.140018
0.140069
0.140126
0.140188
0.140258
0.140336
0.140425
0.140527
0.140648
0.140789
0.14097
0.141217
0.141465
0.141819
0.142584
0.139487
0.139475
0.139488
0.13954
0.139531
0.13951
0.139512
0.139535
0.139558
0.139576
0.139593
0.13961
0.139626
0.139641
0.139658
0.139673
0.139689
0.139704
0.139718
0.139729
0.139739
0.139747
0.139753
0.139758
0.139764
0.139771
0.139777
0.139782
0.139787
0.13979
0.139792
0.139791
0.139789
0.139786
0.139782
0.139774
0.139757
0.139752
0.139646
0.139595
0.13964
0.139679
0.13969
0.139698
0.139703
0.139703
0.139703
0.139704
0.139707
0.139712
0.139719
0.139728
0.139738
0.13975
0.139763
0.139779
0.139796
0.139815
0.139836
0.139859
0.139885
0.139917
0.139955
0.139998
0.140048
0.140103
0.140165
0.140234
0.140312
0.140401
0.140502
0.140621
0.140758
0.140931
0.141164
0.141414
0.14174
0.142417
0.139555
0.139538
0.139548
0.139602
0.139595
0.139579
0.139586
0.139606
0.139622
0.139633
0.139644
0.139654
0.139665
0.139676
0.139689
0.139701
0.139715
0.139728
0.139742
0.139754
0.139766
0.139776
0.139786
0.139795
0.139805
0.139816
0.139826
0.139836
0.139845
0.139854
0.139863
0.13987
0.139876
0.139883
0.13989
0.139896
0.139897
0.139909
0.139864
0.139647
0.139688
0.139724
0.139734
0.13974
0.139742
0.139739
0.139737
0.139736
0.139737
0.139739
0.139743
0.139749
0.139756
0.139764
0.139774
0.139785
0.139799
0.139814
0.139832
0.139851
0.139874
0.139902
0.139936
0.139977
0.140023
0.140075
0.140135
0.140203
0.14028
0.140367
0.140467
0.140583
0.140716
0.14088
0.141099
0.141345
0.141651
0.142249
0.139612
0.139593
0.1396
0.139652
0.139647
0.139635
0.139645
0.139663
0.139675
0.139682
0.139689
0.139695
0.139701
0.139708
0.139716
0.139726
0.139736
0.139747
0.139759
0.139771
0.139783
0.139794
0.139805
0.139816
0.139828
0.139841
0.139853
0.139866
0.139879
0.139892
0.139905
0.139917
0.139929
0.139943
0.139958
0.139973
0.139986
0.140009
0.140001
0.139691
0.139728
0.139763
0.139771
0.139776
0.139776
0.139772
0.139768
0.139767
0.139766
0.139767
0.139769
0.139772
0.139776
0.139781
0.139788
0.139796
0.139806
0.139817
0.139831
0.139848
0.139866
0.13989
0.13992
0.139956
0.139998
0.140047
0.140103
0.140168
0.140242
0.140327
0.140424
0.140536
0.140665
0.140821
0.141027
0.141265
0.141556
0.142092
0.13966
0.139642
0.139646
0.139693
0.139689
0.139681
0.139692
0.139709
0.139719
0.139724
0.139728
0.139731
0.139734
0.139738
0.139743
0.139749
0.139756
0.139765
0.139774
0.139785
0.139795
0.139806
0.139817
0.139828
0.139841
0.139854
0.139868
0.139883
0.139897
0.139913
0.139928
0.139944
0.13996
0.139978
0.139998
0.14002
0.140042
0.140072
0.140087
0.139728
0.139763
0.139795
0.139803
0.139806
0.139804
0.1398
0.139797
0.139795
0.139794
0.139795
0.139796
0.139797
0.139799
0.139801
0.139805
0.13981
0.139817
0.139825
0.139835
0.139848
0.139863
0.139882
0.139906
0.139937
0.139974
0.140019
0.140071
0.140132
0.140202
0.140283
0.140377
0.140485
0.140609
0.140757
0.140949
0.141178
0.141454
0.141946
0.139703
0.139688
0.13969
0.139728
0.139724
0.139717
0.139728
0.139744
0.139755
0.13976
0.139763
0.139764
0.139765
0.139766
0.139768
0.139771
0.139776
0.139782
0.139789
0.139796
0.139805
0.139815
0.139824
0.139835
0.139848
0.139861
0.139875
0.13989
0.139906
0.139922
0.13994
0.139958
0.139977
0.139997
0.140021
0.140047
0.140075
0.14011
0.14014
0.139761
0.139793
0.139823
0.13983
0.139831
0.139829
0.139825
0.139823
0.139821
0.139821
0.13982
0.13982
0.139821
0.139821
0.139822
0.139823
0.139826
0.13983
0.139835
0.139843
0.139852
0.139863
0.139878
0.139897
0.139923
0.139955
0.139993
0.14004
0.140096
0.140161
0.140239
0.140328
0.140431
0.140551
0.14069
0.14087
0.141087
0.141348
0.141801
0.139743
0.13973
0.139731
0.139762
0.139755
0.139747
0.139757
0.139773
0.139784
0.139789
0.139792
0.139793
0.139792
0.139792
0.139792
0.139793
0.139795
0.139799
0.139803
0.139809
0.139815
0.139823
0.139831
0.139841
0.139852
0.139864
0.139878
0.139892
0.139908
0.139925
0.139943
0.139963
0.139983
0.140005
0.140031
0.14006
0.140092
0.14013
0.14017
0.139792
0.139821
0.139849
0.139853
0.139852
0.13985
0.139847
0.139846
0.139845
0.139844
0.139843
0.139843
0.139842
0.139842
0.139841
0.139842
0.139843
0.139845
0.139848
0.139853
0.139859
0.139867
0.139878
0.139893
0.139913
0.139939
0.139972
0.140012
0.140062
0.140122
0.140194
0.140278
0.140376
0.140491
0.140623
0.140791
0.140996
0.141241
0.141655
0.139779
0.13977
0.13977
0.139793
0.139784
0.139774
0.139782
0.139797
0.139808
0.139814
0.139817
0.139818
0.139817
0.139816
0.139815
0.139814
0.139815
0.139816
0.139818
0.139821
0.139826
0.139831
0.139838
0.139845
0.139855
0.139866
0.139879
0.139892
0.139907
0.139924
0.139942
0.139962
0.139983
0.140006
0.140033
0.140063
0.140097
0.140138
0.140183
0.139821
0.139847
0.139872
0.139873
0.139871
0.139868
0.139866
0.139866
0.139865
0.139864
0.139863
0.139862
0.139861
0.139861
0.13986
0.13986
0.13986
0.139861
0.139863
0.139865
0.139869
0.139875
0.139882
0.139893
0.139908
0.139928
0.139955
0.139989
0.140032
0.140085
0.14015
0.140229
0.140321
0.14043
0.140556
0.140712
0.140905
0.141135
0.141508
0.139813
0.139806
0.139807
0.139824
0.139813
0.139801
0.139807
0.139819
0.139829
0.139835
0.139839
0.13984
0.139839
0.139838
0.139836
0.139835
0.139833
0.139833
0.139833
0.139835
0.139837
0.139841
0.139845
0.139851
0.139859
0.139868
0.139879
0.139891
0.139905
0.139921
0.139938
0.139958
0.139978
0.140001
0.140028
0.140059
0.140094
0.140136
0.140185
0.139849
0.139871
0.139893
0.139891
0.139886
0.139885
0.139884
0.139884
0.139884
0.139883
0.139882
0.139881
0.13988
0.139879
0.139878
0.139878
0.139877
0.139878
0.139878
0.13988
0.139882
0.139885
0.13989
0.139897
0.139907
0.139922
0.139943
0.13997
0.140006
0.140052
0.14011
0.140181
0.140267
0.14037
0.140489
0.140636
0.140816
0.141033
0.141366
0.139845
0.139839
0.13984
0.139852
0.139841
0.139828
0.139831
0.139841
0.139849
0.139855
0.139858
0.13986
0.139859
0.139858
0.139856
0.139854
0.139852
0.13985
0.139849
0.139849
0.139849
0.139851
0.139854
0.139858
0.139863
0.139871
0.13988
0.13989
0.139903
0.139917
0.139934
0.139952
0.139972
0.139994
0.140021
0.140052
0.140087
0.140128
0.140179
0.139876
0.139895
0.139913
0.139907
0.139901
0.1399
0.1399
0.1399
0.1399
0.139899
0.139899
0.139898
0.139897
0.139897
0.139896
0.139896
0.139895
0.139895
0.139895
0.139896
0.139897
0.139898
0.139901
0.139904
0.139911
0.139922
0.139937
0.139958
0.139986
0.140024
0.140074
0.140137
0.140216
0.140311
0.140423
0.14056
0.14073
0.140934
0.141232
0.139873
0.139869
0.139869
0.139877
0.139867
0.139854
0.139855
0.139862
0.139869
0.139873
0.139876
0.139877
0.139877
0.139876
0.139874
0.139871
0.139869
0.139867
0.139865
0.139863
0.139862
0.139862
0.139863
0.139866
0.13987
0.139875
0.139882
0.139891
0.139901
0.139914
0.139929
0.139946
0.139964
0.139986
0.140011
0.140041
0.140075
0.140116
0.140167
0.139901
0.139918
0.139931
0.139922
0.139916
0.139915
0.139915
0.139916
0.139916
0.139915
0.139915
0.139915
0.139914
0.139914
0.139914
0.139913
0.139913
0.139913
0.139912
0.139912
0.139913
0.139913
0.139914
0.139915
0.139919
0.139925
0.139936
0.139951
0.139972
0.140002
0.140044
0.140098
0.140168
0.140254
0.140359
0.140487
0.140645
0.140838
0.141107
0.139899
0.139895
0.139894
0.139899
0.139889
0.139879
0.139879
0.139883
0.139888
0.139891
0.139893
0.139894
0.139893
0.139892
0.13989
0.139888
0.139885
0.139882
0.13988
0.139878
0.139876
0.139875
0.139874
0.139875
0.139877
0.139881
0.139886
0.139893
0.139901
0.139912
0.139925
0.13994
0.139957
0.139977
0.140001
0.140029
0.140062
0.140102
0.140151
0.139925
0.13994
0.139949
0.139937
0.139932
0.139931
0.139931
0.13993
0.13993
0.139929
0.13993
0.139931
0.139931
0.139931
0.139931
0.139931
0.13993
0.13993
0.139929
0.139929
0.139929
0.139929
0.139929
0.139929
0.13993
0.139933
0.13994
0.139949
0.139965
0.139987
0.14002
0.140065
0.140125
0.140202
0.140298
0.140416
0.140563
0.140746
0.14099
0.139922
0.139918
0.139914
0.139917
0.139909
0.1399
0.1399
0.139903
0.139906
0.139908
0.139909
0.139909
0.139908
0.139907
0.139905
0.139903
0.1399
0.139897
0.139895
0.139892
0.13989
0.139887
0.139886
0.139885
0.139886
0.139888
0.139891
0.139896
0.139902
0.139911
0.139922
0.139935
0.139951
0.139969
0.139991
0.140017
0.140048
0.140086
0.140133
0.139946
0.13996
0.139965
0.139953
0.139949
0.139948
0.139946
0.139944
0.139943
0.139943
0.139945
0.139946
0.139946
0.139947
0.139947
0.139947
0.139947
0.139946
0.139946
0.139945
0.139945
0.139945
0.139944
0.139943
0.139943
0.139944
0.139947
0.139953
0.139963
0.139978
0.140003
0.140038
0.140088
0.140155
0.14024
0.140349
0.140484
0.140656
0.14088
0.139943
0.139937
0.139932
0.139932
0.139924
0.139917
0.139918
0.139921
0.139923
0.139924
0.139924
0.139923
0.139922
0.139921
0.139919
0.139917
0.139914
0.139911
0.139908
0.139906
0.139903
0.1399
0.139897
0.139896
0.139895
0.139896
0.139897
0.1399
0.139905
0.139912
0.139921
0.139932
0.139946
0.139962
0.139982
0.140006
0.140035
0.14007
0.140114
0.139965
0.139977
0.13998
0.139967
0.139965
0.139964
0.139961
0.139959
0.139958
0.139958
0.139959
0.13996
0.139961
0.139961
0.139962
0.139962
0.139962
0.139961
0.139961
0.139961
0.13996
0.13996
0.139959
0.139958
0.139957
0.139957
0.139958
0.13996
0.139966
0.139976
0.139992
0.140019
0.140059
0.140114
0.140189
0.140286
0.140409
0.140569
0.140775
0.13996
0.139953
0.139947
0.139944
0.139937
0.139931
0.139933
0.139936
0.139938
0.139938
0.139937
0.139936
0.139935
0.139933
0.139932
0.139929
0.139927
0.139924
0.139921
0.139918
0.139915
0.139912
0.139909
0.139907
0.139905
0.139904
0.139905
0.139906
0.139909
0.139914
0.139921
0.139931
0.139942
0.139956
0.139974
0.139996
0.140022
0.140054
0.140095
0.13998
0.139991
0.139992
0.139981
0.13998
0.139979
0.139976
0.139974
0.139973
0.139973
0.139973
0.139974
0.139974
0.139975
0.139975
0.139976
0.139976
0.139976
0.139975
0.139975
0.139975
0.139974
0.139973
0.139972
0.13997
0.13997
0.13997
0.13997
0.139973
0.139978
0.139988
0.140007
0.140037
0.140081
0.140144
0.140228
0.140339
0.140486
0.140676
0.139973
0.139967
0.13996
0.139956
0.139948
0.139942
0.139944
0.139948
0.13995
0.13995
0.139949
0.139948
0.139946
0.139945
0.139943
0.13994
0.139938
0.139935
0.139932
0.139929
0.139926
0.139923
0.13992
0.139917
0.139915
0.139913
0.139912
0.139913
0.139914
0.139918
0.139923
0.139931
0.13994
0.139952
0.139967
0.139987
0.14001
0.14004
0.140077
0.139991
0.140001
0.140002
0.139992
0.139993
0.139993
0.13999
0.13999
0.139989
0.139988
0.139987
0.139987
0.139987
0.139987
0.139988
0.139988
0.139989
0.139989
0.139989
0.139988
0.139988
0.139988
0.139987
0.139985
0.139984
0.139983
0.139982
0.139981
0.139982
0.139984
0.139989
0.140001
0.140022
0.140056
0.140106
0.140178
0.140275
0.140408
0.140581
0.139984
0.139978
0.139974
0.139967
0.139958
0.139952
0.139953
0.139958
0.139959
0.139959
0.139959
0.139957
0.139956
0.139954
0.139952
0.13995
0.139948
0.139945
0.139942
0.13994
0.139936
0.139933
0.13993
0.139926
0.139924
0.139922
0.13992
0.139919
0.13992
0.139922
0.139926
0.139931
0.139939
0.139949
0.139963
0.13998
0.14
0.140027
0.14006
0.139999
0.140008
0.140009
0.140002
0.140004
0.140005
0.140004
0.140004
0.140004
0.140002
0.140001
0.14
0.14
0.14
0.14
0.140001
0.140001
0.140001
0.140001
0.140001
0.140001
0.14
0.139999
0.139998
0.139996
0.139995
0.139994
0.139993
0.139992
0.139992
0.139994
0.14
0.140014
0.140038
0.140077
0.140136
0.140218
0.140335
0.140491
0.139994
0.13999
0.139987
0.139979
0.13997
0.139962
0.139961
0.139965
0.139967
0.139967
0.139966
0.139965
0.139964
0.139962
0.139961
0.139959
0.139956
0.139954
0.139951
0.139948
0.139945
0.139942
0.139938
0.139935
0.139932
0.13993
0.139928
0.139926
0.139926
0.139926
0.139929
0.139933
0.13994
0.139948
0.139959
0.139974
0.139992
0.140016
0.140045
0.140008
0.140015
0.140016
0.140013
0.140015
0.140016
0.140016
0.140017
0.140017
0.140016
0.140015
0.140014
0.140013
0.140012
0.140012
0.140012
0.140012
0.140013
0.140013
0.140013
0.140012
0.140012
0.140011
0.140009
0.140008
0.140007
0.140006
0.140004
0.140003
0.140001
0.140001
0.140004
0.140011
0.140027
0.140056
0.140101
0.140169
0.14027
0.140408
0.140004
0.140003
0.140001
0.139992
0.139982
0.139973
0.13997
0.139971
0.139972
0.139972
0.139972
0.139971
0.13997
0.139969
0.139967
0.139965
0.139963
0.139961
0.139958
0.139955
0.139952
0.139949
0.139945
0.139942
0.139939
0.139937
0.139934
0.139932
0.139931
0.139931
0.139933
0.139936
0.139941
0.139948
0.139957
0.139969
0.139985
0.140006
0.140032
0.140019
0.140023
0.140024
0.140024
0.140026
0.140027
0.140028
0.140029
0.140028
0.140027
0.140027
0.140026
0.140026
0.140025
0.140024
0.140024
0.140024
0.140024
0.140024
0.140024
0.140024
0.140024
0.140022
0.140021
0.140019
0.140018
0.140017
0.140015
0.140013
0.140011
0.140009
0.140009
0.140013
0.140022
0.140041
0.140075
0.140128
0.140213
0.140333
0.140017
0.140017
0.140014
0.140006
0.139996
0.139986
0.139979
0.139978
0.139978
0.139977
0.139976
0.139975
0.139974
0.139973
0.139972
0.13997
0.139968
0.139966
0.139963
0.139961
0.139958
0.139954
0.139951
0.139948
0.139945
0.139942
0.13994
0.139938
0.139936
0.139936
0.139937
0.139939
0.139942
0.139948
0.139956
0.139966
0.13998
0.139998
0.140021
0.140031
0.140033
0.140034
0.140035
0.140037
0.140039
0.140039
0.14004
0.140039
0.140038
0.140038
0.140038
0.140037
0.140037
0.140036
0.140035
0.140035
0.140035
0.140035
0.140035
0.140035
0.140035
0.140034
0.140032
0.14003
0.140029
0.140027
0.140026
0.140024
0.140021
0.140019
0.140017
0.140017
0.140021
0.140033
0.140056
0.140096
0.140165
0.140265
0.140031
0.140031
0.140027
0.140019
0.140009
0.139999
0.13999
0.139986
0.139983
0.139981
0.13998
0.139978
0.139977
0.139976
0.139975
0.139974
0.139972
0.13997
0.139967
0.139965
0.139962
0.139959
0.139955
0.139952
0.139949
0.139947
0.139944
0.139942
0.139941
0.13994
0.13994
0.139942
0.139945
0.139949
0.139955
0.139964
0.139976
0.139992
0.140011
0.140045
0.140045
0.140046
0.140047
0.140049
0.14005
0.140051
0.140051
0.14005
0.140049
0.140049
0.140049
0.140048
0.140048
0.140047
0.140047
0.140046
0.140046
0.140045
0.140045
0.140045
0.140045
0.140044
0.140042
0.14004
0.140039
0.140038
0.140036
0.140034
0.140031
0.140028
0.140025
0.140024
0.140024
0.14003
0.140044
0.140072
0.140125
0.140207
0.140044
0.140044
0.140039
0.140031
0.140022
0.140012
0.140002
0.139995
0.13999
0.139987
0.139984
0.139982
0.13998
0.139979
0.139977
0.139976
0.139974
0.139972
0.13997
0.139967
0.139965
0.139961
0.139958
0.139955
0.139953
0.13995
0.139948
0.139946
0.139944
0.139943
0.139943
0.139944
0.139947
0.13995
0.139956
0.139963
0.139973
0.139987
0.140003
0.140057