/*--------------------------------*- C++ -*----------------------------------*\
  =========                 |
  \\      /  F ield         | OpenFOAM: The Open Source CFD Toolbox
   \\    /   O peration     | Website:  https://openfoam.org
    \\  /    A nd           | Version:  7
     \\/     M anipulation  |
\*---------------------------------------------------------------------------*/
FoamFile
{
    version     2.0;
    format      ascii;
    class       volScalarField;
    location    "50";
    object      p;
}
// * * * * * * * * * * * * * * * * * * * * * * * * * * * * * * * * * * * * * //

dimensions      [0 2 -2 0 0 0 0];

internalField   nonuniform List<scalar> 
10720
(
70.7896
9.90852
-62.7748
-136.994
-208.898
-283.623
-352.532
-413.377
-468.329
-514.08
-551.793
-582.277
-605.878
-623.168
-634.528
-639.895
-640.345
-634.497
-623.132
-604.997
-580.981
-550.439
-515.412
-476.816
-437.793
-402.807
-370.983
-339.164
-307.086
-275.045
-243.077
-211.242
-179.599
-147.981
-116.102
-82.8952
-48.2267
-7.08633
30.8847
129.134
181.07
233.193
279.187
313.913
333.056
338.573
333.45
317.006
292.545
264.994
237.701
211.93
188.399
167.471
148.297
130.72
114.145
98.2367
82.3635
66.478
50.2252
33.7754
17.6335
3.96043
-6.16644
-14.1098
-20.3561
-24.8581
-27.5041
-28.3054
-27.338
-24.7418
-20.6327
-15.1681
-8.06946
1.09778
16.1875
40.8695
127.991
81.9791
29.3462
-27.9118
-88.0687
-150.88
-213.319
-273.359
-330.142
-381.918
-428.087
-468.297
-502.316
-530.168
-551.851
-567.171
-576.193
-578.46
-574.419
-563.528
-546.249
-522.374
-493.403
-460.399
-426.083
-394.182
-364.289
-333.957
-303.027
-271.883
-240.638
-209.383
-178.2
-146.939
-115.33
-82.3248
-47.8119
-6.71052
30.4001
168.558
206.294
242.627
275.859
302.325
319.159
325.594
321.967
309.286
290.131
267.447
243.588
219.921
197.321
176.294
156.657
138.322
120.974
104.328
87.9386
71.6747
55.2923
38.9236
23.0657
9.38393
-1.20408
-9.6667
-16.4221
-21.4164
-24.5306
-25.763
-25.1972
-22.969
-19.187
-13.9914
-7.09428
1.93076
16.9635
40.6407
133.122
92.199
45.1701
-7.44354
-63.266
-121.85
-181.583
-240.168
-296.138
-348.31
-395.411
-436.894
-472.416
-501.792
-524.851
-541.534
-551.855
-555.806
-553.484
-544.617
-529.434
-508.003
-481.472
-451.034
-418.968
-388.343
-359.244
-329.774
-299.648
-269.2
-238.552
-207.785
-176.984
-146.015
-114.622
-81.7868
-47.4148
-6.45222
30.3376
169.218
203.058
235.385
264.469
287.342
302.431
309.275
307.774
298.484
283.071
263.607
242.099
220.003
198.313
177.669
158.213
139.905
122.556
105.913
89.6277
73.5135
57.3949
41.3617
25.8559
12.191
1.28724
-7.44314
-14.4082
-19.5889
-22.8855
-24.306
-23.9351
-21.8989
-18.2934
-13.2385
-6.43682
2.54104
17.4917
40.3182
138.857
104.194
63.976
19.0175
-29.0695
-80.359
-133.351
-186.429
-238.414
-288.13
-334.429
-376.561
-413.929
-446.092
-472.651
-493.359
-508.137
-516.754
-519.059
-514.805
-504.077
-487.033
-464.573
-437.895
-408.957
-380.399
-352.721
-324.53
-295.497
-265.95
-236.052
-205.89
-175.56
-144.949
-113.824
-81.2038
-47.0213
-6.2976
30.2756
169.36
197.838
225.379
250.569
270.702
284.667
291.891
292.03
285.446
273.317
257.199
238.69
219.024
199.13
179.666
160.922
142.969
125.753
109.119
92.8317
76.7326
60.7079
44.8355
29.5171
15.8255
4.64103
-4.3729
-11.6029
-17.0538
-20.6399
-22.365
-22.3018
-20.5576
-17.2095
-12.356
-5.69215
3.20336
18.0124
40.0174
136.676
105.966
70.1706
30.0002
-13.0371
-59.387
-107.788
-156.853
-205.694
-253.185
-298.239
-340.042
-377.853
-411.065
-439.178
-461.819
-478.692
-489.491
-494.041
-492.193
-484.005
-469.703
-450.025
-426.096
-399.609
-372.78
-346.312
-319.223
-291.181
-262.49
-233.332
-203.786
-173.949
-143.725
-112.904
-80.5413
-46.6036
-6.19899
29.9913
163.745
188.894
213.347
235.83
253.97
267.088
274.585
275.994
271.59
262.197
248.974
233.182
215.829
197.747
179.588
161.722
144.325
127.449
111.03
94.9273
79.0168
63.2241
47.624
32.5792
18.9735
7.61978
-1.61829
-9.06647
-14.7438
-18.5764
-20.5616
-20.7637
-19.274
-16.1519
-11.4747
-4.93035
3.88881
18.54
39.7078
132.468
105.158
73.2223
37.3972
-0.937434
-42.4725
-86.0721
-130.619
-175.476
-219.649
-262.216
-302.423
-339.505
-372.786
-401.699
-425.754
-444.504
-457.653
-464.933
-466.131
-461.177
-450.224
-433.844
-413.044
-389.292
-364.47
-339.428
-313.57
-286.615
-258.844
-230.46
-201.55
-172.222
-142.398
-111.9
-79.8251
-46.1792
-6.1853
29.4916
156.577
178.934
200.859
221.189
237.773
250.207
257.871
260.235
257.529
250.36
239.615
226.297
211.21
195.06
178.438
161.729
145.164
128.865
112.848
97.0492
81.3996
65.8664
50.5354
35.7423
22.2306
10.7411
1.29089
-6.37274
-12.2809
-16.3704
-18.6328
-19.1202
-17.905
-15.0258
-10.5378
-4.12406
4.60518
19.0586
39.3728
126.576
101.932
73.0551
40.6662
6.10445
-31.4926
-71.1112
-111.789
-153.106
-194.188
-234.258
-272.653
-308.621
-341.479
-370.616
-395.46
-415.493
-430.306
-439.545
-442.945
-440.394
-432.032
-418.338
-400.198
-378.88
-355.961
-332.337
-307.714
-281.864
-255.036
-227.443
-199.185
-170.379
-140.975
-110.821
-79.0647
-45.7605
-6.2747
28.8001
148.373
168.551
188.483
207.086
222.419
234.267
242.01
245.085
243.7
238.322
229.649
218.487
205.475
191.187
176.142
160.696
145.101
129.528
114.051
98.6735
83.3798
68.1794
53.1722
38.6694
25.305
13.7509
4.13445
-3.71941
-9.84222
-14.1765
-16.7043
-17.4645
-16.512
-13.8667
-9.56348
-3.28331
5.34368
19.5561
39.011
120.012
97.5928
71.2955
41.8316
10.5002
-23.6547
-59.7093
-96.8249
-134.732
-172.694
-210.046
-246.242
-280.6
-312.468
-341.229
-366.284
-387.061
-403.08
-413.956
-419.393
-419.18
-413.386
-402.373
-386.884
-368
-347.048
-324.931
-301.595
-276.889
-251.034
-224.258
-196.674
-168.414
-139.45
-109.667
-78.262
-45.3494
-6.46538
27.9208
139.883
158.263
176.544
193.711
208.013
219.345
227.087
230.689
230.327
226.382
219.423
210.112
198.958
186.423
172.942
158.823
144.313
129.601
114.798
99.9595
85.1156
70.3146
55.6729
41.4822
28.297
16.7263
6.97568
-1.05163
-7.37723
-11.9451
-14.7278
-15.7519
-15.0572
-12.646
-8.5343
-2.40203
6.0995
20.021
38.6123
113.152
92.5956
68.471
41.4746
12.8754
-18.326
-51.2903
-85.2635
-120.099
-155.157
-189.886
-223.849
-256.437
-287.052
-315.108
-339.999
-361.129
-377.982
-390.102
-397.167
-398.884
-395.277
-386.616
-373.522
-356.905
-337.869
-317.27
-295.233
-271.684
-246.825
-220.891
-194.01
-166.324
-137.83
-108.446
-77.4263
-44.9505
-6.75419
26.8543
131.411
148.292
165.188
181.141
194.567
205.429
213.115
217.102
217.529
214.731
209.182
201.44
191.916
180.981
168.99
156.197
142.824
129.058
115.028
100.823
86.5129
72.1775
57.9473
44.1015
31.1343
19.6016
9.76142
1.59054
-4.91472
-9.69647
-12.7182
-13.9934
-13.5492
-11.3713
-7.45838
-1.49093
6.8584
20.4385
38.1605
106.277
87.3133
65.055
40.1857
13.9397
-14.6962
-44.9421
-76.1157
-108.157
-140.506
-172.712
-204.43
-235.123
-264.277
-291.342
-315.728
-336.851
-354.174
-367.198
-375.582
-378.984
-377.35
-370.859
-360.011
-345.557
-328.402
-309.337
-288.615
-266.238
-242.397
-217.332
-191.185
-164.108
-136.119
-107.169
-76.5707
-44.5726
-7.14211
25.6172
123.16
138.764
154.475
169.386
182.049
192.472
200.066
204.323
205.361
203.479
199.088
192.666
184.555
175.054
164.451
152.944
140.722
127.955
114.773
101.284
87.5822
73.7731
60.0006
46.5331
33.822
22.3789
12.4958
4.21321
-2.44794
-7.42498
-10.6713
-12.1875
-11.989
-10.0462
-6.34191
-0.558744
7.61009
20.7991
37.6468
99.542
81.9551
61.3153
38.2913
14.0908
-12.3049
-40.162
-68.8579
-98.3825
-128.249
-158.092
-187.644
-216.441
-244.036
-269.938
-293.599
-314.45
-331.955
-345.589
-354.993
-359.788
-359.849
-355.281
-346.471
-334.029
-318.686
-301.147
-281.744
-260.549
-237.748
-213.58
-188.201
-161.771
-134.325
-105.848
-75.7105
-44.2303
-7.63488
24.2244
115.232
129.735
144.417
158.418
170.405
180.417
187.887
192.327
193.835
192.687
189.243
183.929
177.035
168.802
159.467
149.179
138.087
126.337
114.049
101.334
88.3035
75.0773
61.8071
48.7532
36.338
25.0364
15.159
6.80073
0.0101198
-5.14174
-8.5975
-10.3442
-10.386
-8.67944
-5.19245
0.388017
8.34843
21.1013
37.0717
93.0363
76.6571
57.4389
36.0363
13.6268
-10.7963
-36.5392
-63.0248
-90.2851
-117.887
-145.532
-173.019
-199.951
-225.952
-250.585
-273.348
-293.712
-311.152
-325.141
-335.295
-341.23
-342.747
-339.883
-332.926
-322.353
-308.747
-292.716
-274.633
-254.628
-232.885
-209.642
-185.065
-159.319
-132.456
-104.49
-74.8562
-43.9331
-8.23338
22.6931
107.686
121.225
134.999
148.193
159.574
169.197
176.521
181.077
182.943
182.382
179.717
175.33
169.475
162.355
154.163
145.008
135.001
124.26
112.888
100.989
88.679
76.0843
63.3582
50.7548
38.6741
27.5626
17.7392
9.34269
2.45052
-2.85481
-6.50419
-8.47062
-8.74662
-7.27641
-4.01406
1.34671
9.07277
21.3494
36.4429
86.815
71.5025
53.5446
33.5781
12.7525
-9.92198
-33.785
-58.2951
-83.5165
-109.064
-134.682
-160.23
-185.367
-209.78
-233.092
-254.853
-274.573
-291.754
-305.881
-316.55
-323.386
-326.124
-324.743
-319.443
-310.588
-298.627
-284.071
-267.301
-248.489
-227.82
-205.527
-181.782
-156.756
-130.515
-103.1
-74.0138
-43.6864
-8.93428
21.0323
100.539
113.23
126.192
138.663
149.495
158.75
165.912
170.527
172.665
172.574
170.548
166.935
161.968
155.817
148.644
140.526
131.544
121.784
111.329
100.268
88.7126
76.787
64.6428
52.5255
40.8173
29.9418
20.2203
11.8247
4.86109
-0.574174
-4.39965
-6.57355
-7.07636
-5.84115
-2.80903
2.31725
9.78443
21.5495
35.771
80.9033
66.5427
49.7118
31.0287
11.6144
-9.49889
-31.6826
-54.4212
-77.8055
-101.484
-125.242
-148.98
-172.412
-195.276
-217.255
-237.951
-256.913
-273.682
-287.762
-298.739
-306.259
-310.002
-309.898
-306.069
-298.78
-288.366
-275.241
-259.769
-242.148
-222.563
-201.24
-178.355
-154.082
-128.501
-101.677
-73.1811
-43.4861
-9.72671
19.2562
93.7995
105.73
117.961
129.779
140.108
149.01
156
160.634
162.974
163.259
161.757
158.793
154.58
149.27
142.999
135.822
127.791
118.97
109.415
99.1976
88.4158
77.1876
65.6571
54.0583
42.7584
32.1622
22.5886
14.2342
7.23099
1.69104
-2.29128
-4.65912
-5.38
-4.37739
-1.57966
3.29873
10.4846
21.7081
35.0659
75.3112
61.8077
45.9918
28.4644
10.3164
-9.39659
-30.069
-51.2145
-72.9369
-94.9143
-116.966
-139.026
-160.853
-182.233
-202.895
-222.493
-240.623
-256.862
-270.748
-281.864
-289.869
-294.42
-295.397
-292.857
-286.982
-278.008
-266.257
-252.057
-235.618
-217.122
-196.785
-174.785
-151.298
-126.412
-100.218
-72.3529
-43.3249
-10.6013
17.3807
87.4612
98.7051
110.272
121.497
131.359
139.923
146.733
151.353
153.84
154.424
153.354
150.932
147.361
142.779
137.302
130.971
123.816
115.878
107.19
97.8055
87.8044
77.2923
66.4006
55.3485
44.489
34.2124
24.8309
16.558
9.54875
3.93116
-0.187156
-2.73383
-3.66297
-2.88932
-0.32905
4.28967
11.1728
21.8291
34.3349
70.0383
57.3135
42.4178
25.9384
8.93249
-9.51399
-28.8208
-48.5263
-68.7418
-89.1705
-109.66
-130.171
-150.495
-170.461
-189.843
-208.338
-225.591
-241.217
-254.789
-265.899
-274.218
-279.399
-281.275
-279.849
-275.238
-267.593
-257.148
-244.187
-228.914
-211.507
-192.167
-171.072
-148.398
-124.242
-98.7166
-71.5204
-43.193
-11.543
15.4307
81.5112
92.1313
103.091
113.771
123.198
131.438
138.063
142.644
145.234
146.054
145.339
143.372
140.348
136.392
131.613
126.036
119.68
112.563
104.701
96.1263
86.9004
77.1114
66.8751
56.3934
46.0044
36.0835
26.9353
18.7837
11.8026
6.13568
1.90396
-0.805035
-1.93133
-1.38199
0.938657
5.287
11.848
21.9161
33.5836
65.0802
53.0651
39.0091
23.4861
7.51706
-9.77892
-27.8472
-46.2446
-65.0899
-84.1088
-103.167
-122.246
-141.17
-159.8
-177.95
-195.36
-211.715
-226.671
-239.835
-250.821
-259.307
-264.957
-267.564
-267.09
-263.596
-257.164
-247.95
-236.184
-222.055
-205.728
-187.392
-167.22
-145.384
-121.99
-97.1682
-70.6778
-43.0854
-12.5401
13.4307
75.9329
85.9834
96.3852
106.56
115.579
123.507
129.943
134.467
137.124
138.131
137.707
136.121
133.562
130.149
125.979
121.074
115.438
109.079
101.993
94.1963
85.7291
76.661
67.0886
57.1945
47.3004
37.7678
28.8912
20.8994
13.981
8.2943
3.97313
1.11982
-0.191434
0.139386
2.21925
6.2879
12.5087
21.9722
32.816
60.4266
49.0629
35.7794
21.1308
6.10992
-10.1375
-27.0751
-44.2818
-61.877
-79.6067
-97.3525
-115.113
-132.736
-150.113
-167.089
-183.44
-198.894
-213.143
-225.831
-236.597
-245.124
-251.101
-254.288
-254.614
-252.097
-246.762
-238.696
-228.074
-215.058
-199.799
-182.469
-163.231
-142.255
-119.654
-95.5694
-69.8198
-42.9968
-13.5777
11.4082
70.708
80.2345
90.1205
99.8247
108.46
116.089
122.334
126.784
129.481
130.633
130.449
129.184
127.021
124.076
120.438
116.127
111.14
105.473
99.1107
92.0513
84.3176
75.959
67.0517
57.7563
48.3767
39.2601
30.6895
22.894
16.0726
10.3961
6.01058
3.03234
1.54963
1.66888
3.50774
7.28869
13.1537
22.0012
32.038
56.065
45.3026
32.7309
18.8895
4.73716
-10.5478
-26.4507
-42.5668
-59.02
-75.5689
-92.1105
-108.655
-125.072
-141.275
-157.138
-172.469
-187.034
-200.558
-212.721
-223.19
-231.656
-237.836
-241.468
-242.454
-240.78
-236.428
-229.423
-219.886
-207.947
-193.737
-177.407
-159.113
-139.017
-117.235
-93.9198
-68.9463
-42.9274
-14.646
9.37871
65.8182
74.8598
84.2677
93.5308
101.802
109.144
115.197
119.563
122.276
123.541
123.554
122.559
120.734
118.192
115.02
111.234
106.827
101.788
96.0939
89.7275
82.6948
75.0261
66.7765
58.0851
49.2352
40.5577
32.3231
24.7578
18.0666
12.4306
8.00671
4.92411
3.28456
3.20049
4.79939
8.2862
13.7814
22.0067
31.2546
51.9825
41.7781
29.8655
16.7702
3.41898
-10.9805
-25.9313
-41.0479
-56.4527
-71.9181
-87.3512
-102.774
-118.073
-133.179
-147.993
-162.349
-176.045
-188.842
-200.448
-210.561
-218.884
-225.16
-229.117
-230.636
-229.68
-226.198
-220.165
-211.648
-200.744
-187.557
-172.22
-154.874
-135.673
-114.733
-92.2191
-68.056
-42.8737
-15.7349
7.35131
61.2446
69.8365
78.7975
87.6468
95.5719
102.637
108.5
112.772
115.484
116.834
117.009
116.241
114.706
112.514
109.747
106.423
102.534
98.0635
92.981
87.2594
80.8901
73.8856
66.2807
58.1917
49.8799
41.6591
33.7866
26.482
19.9528
14.3871
9.95122
6.78581
5.00527
4.72738
6.08848
9.27638
14.391
21.9923
30.4716
48.165
38.4797
27.1811
14.7788
2.16846
-11.4127
-25.4859
-39.6815
-54.1216
-68.5898
-83.0039
-97.3917
-111.655
-125.74
-139.566
-152.995
-165.851
-177.924
-188.955
-198.67
-206.784
-213.066
-217.242
-219.182
-218.828
-216.108
-210.956
-203.391
-193.472
-181.28
-166.922
-150.524
-132.229
-112.154
-90.4689
-67.1492
-42.8351
-16.8392
5.3256
56.9701
65.1413
73.6838
82.1425
89.7393
96.5385
102.212
106.385
109.08
110.492
110.8
110.225
108.939
107.048
104.636
101.719
98.2905
94.3312
89.8061
84.6802
78.9332
72.562
65.5828
58.088
50.317
42.5656
35.0763
28.0596
21.7219
16.2556
11.8342
8.60829
6.70356
6.24278
7.36964
10.2558
14.9812
21.9618
29.6944
44.5991
35.3987
24.6725
12.9166
0.994251
-11.828
-25.0884
-38.4341
-51.9823
-65.5315
-79.0053
-92.4381
-105.741
-118.876
-131.778
-144.328
-156.377
-167.742
-178.19
-187.476
-195.329
-201.542
-205.849
-208.107
-208.251
-206.19
-201.829
-195.145
-186.159
-174.925
-161.527
-146.073
-128.691
-109.499
-88.6693
-66.2244
-42.8063
-17.9516
3.30233
52.9761
60.7529
68.9011
76.992
84.2759
90.8183
96.3063
100.373
103.042
104.498
104.914
104.502
103.429
101.8
99.6983
97.1405
94.1205
90.6192
86.5992
82.0203
76.8527
71.0801
64.7014
57.7876
50.5553
43.2809
36.1908
29.4851
23.3657
18.0263
13.6456
10.3817
8.37045
7.73907
8.63655
11.2201
15.551
21.9184
28.9292
41.2708
32.5242
22.3347
11.1834
-0.0991099
-12.2148
-24.7209
-37.2784
-50.003
-62.7014
-75.3064
-87.8547
-100.269
-112.519
-124.557
-136.278
-147.557
-158.232
-168.1
-176.937
-184.494
-190.575
-194.936
-197.426
-197.971
-196.474
-192.816
-186.939
-178.83
-168.515
-156.054
-141.533
-125.069
-106.772
-86.8225
-65.2798
-42.7842
-19.0679
1.28186
49.245
56.6517
64.4287
72.1707
79.1567
85.4516
90.7561
94.7146
97.3456
98.8324
99.3367
99.0622
98.173
96.7734
94.9421
92.7001
90.0426
86.9507
83.3865
79.307
74.6754
69.4643
63.6577
57.3069
50.6056
43.8102
37.1309
30.7548
24.8773
19.6907
15.3758
12.0968
9.99728
9.2089
9.8834
12.1657
16.0994
21.8653
28.1808
38.1666
29.8467
20.1609
9.57663
-1.10798
-12.5644
-24.3683
-36.1943
-48.1539
-60.0656
-71.8662
-83.5957
-95.1845
-106.612
-117.841
-128.783
-139.33
-149.34
-158.634
-167.012
-174.245
-180.148
-184.499
-187.144
-188.005
-186.983
-183.945
-178.802
-171.512
-162.072
-150.519
-136.917
-121.369
-103.98
-84.9289
-64.3126
-42.7603
-20.1773
-0.726359
45.7616
52.8192
60.2458
67.6577
74.3583
80.4135
85.5382
89.386
91.9739
93.4784
94.0544
93.8967
93.1662
91.9652
90.3716
88.4082
86.0718
83.3453
80.1914
76.5656
72.4266
67.7384
62.4729
56.6629
50.4802
44.1608
37.8984
31.8666
26.2512
21.2404
17.0155
13.7438
11.5747
10.644
11.1036
13.0879
16.6255
21.8053
27.4543
35.2733
27.3555
18.1443
8.09265
-2.03109
-12.8717
-24.0197
-35.1638
-46.4132
-57.5942
-68.6486
-79.6182
-90.4415
-101.105
-111.578
-121.788
-131.642
-141.014
-149.748
-157.664
-164.555
-170.243
-174.532
-177.265
-178.367
-177.741
-175.244
-170.763
-164.232
-155.62
-144.941
-132.24
-117.602
-101.127
-82.9915
-63.3195
-42.7293
-21.2701
-2.71036
42.5106
49.2389
56.3339
63.4306
69.8582
75.6823
80.6313
84.3682
86.9072
88.4193
89.053
88.9949
88.402
87.3747
85.9896
84.2716
82.2196
79.8185
77.0325
73.8173
70.1288
65.9246
61.1669
55.8727
50.1922
44.3418
38.4981
32.8203
27.4835
22.6694
18.5567
15.3138
13.0943
12.0366
12.291
13.9831
17.1282
21.741
26.7541
32.5786
25.0409
16.2771
6.72728
-2.87026
-13.133
-23.6674
-34.1755
-44.7627
-55.2636
-65.6253
-75.8891
-86.0007
-95.9528
-105.721
-115.245
-124.442
-133.207
-141.399
-148.856
-155.392
-160.839
-165.023
-167.791
-169.07
-168.767
-166.735
-162.847
-157.013
-149.18
-139.34
-127.517
-113.78
-98.2204
-81.01
-62.2976
-42.681
-22.3322
-4.6532
39.4777
45.8945
52.6743
59.4707
65.6367
71.238
76.0153
79.6416
82.1277
83.6397
84.3196
84.3463
83.8729
82.9975
81.7959
80.2941
78.4941
76.3823
73.9258
71.0811
67.8026
64.0438
59.7596
54.9532
49.7557
44.3632
38.9354
33.6172
28.5716
23.9716
19.9913
16.7982
14.5472
13.3784
13.4388
14.8467
17.6066
21.6743
26.0837
30.071
22.892
14.5521
5.47562
-3.62618
-13.3464
-23.3056
-33.2184
-43.1876
-53.0546
-62.7715
-72.3793
-81.8297
-91.119
-100.23
-109.11
-117.69
-125.877
-133.545
-140.552
-146.728
-151.916
-155.962
-158.718
-160.117
-160.074
-158.441
-155.079
-149.881
-142.776
-133.736
-122.765
-109.914
-95.2669
-78.9889
-61.2435
-42.6091
-23.3533
-6.5397
36.6492
42.7707
49.2512
55.7607
61.6759
67.0628
71.6724
75.1884
77.6189
79.1246
79.8412
79.9401
79.5705
78.8287
77.7887
76.4783
74.9013
73.047
70.8846
68.3728
65.466
62.1155
58.2702
53.9229
49.1857
44.2362
39.2176
34.2607
29.5148
25.1431
21.3131
18.1892
15.9253
14.6619
14.5411
15.6751
18.0598
21.6067
25.4462
27.7386
20.9005
12.961
4.33286
-4.30238
-13.5111
-22.9299
-32.2859
-41.6764
-50.9519
-60.0676
-69.0651
-77.8994
-86.572
-95.0694
-103.346
-111.345
-118.983
-126.15
-132.718
-138.535
-143.451
-147.334
-150.042
-151.514
-151.675
-150.378
-147.479
-142.859
-136.431
-128.148
-117.998
-106.016
-92.2734
-76.9279
-60.1539
-42.5049
-24.3194
-8.35549
34.0123
39.8538
46.0491
52.2844
57.9591
63.1391
67.5856
70.9925
73.3653
74.8598
75.6054
75.7662
75.4875
74.8629
73.9657
72.8243
71.4449
69.8191
67.9193
65.706
63.1349
60.1568
56.7166
52.7979
48.4968
43.9726
39.3531
34.7547
30.3135
26.1811
22.5168
19.4793
17.2205
15.8792
15.5914
16.464
18.4866
21.5396
24.8436
25.5709
19.0558
11.4967
3.29311
-4.90106
-13.6285
-22.5383
-31.3709
-40.2197
-48.9422
-57.4963
-65.9245
-74.1855
-82.2824
-90.2073
-97.9211
-105.374
-112.493
-119.182
-125.324
-130.785
-135.424
-139.125
-141.757
-143.263
-143.577
-142.562
-140.068
-135.969
-130.167
-122.599
-113.236
-102.099
-89.249
-74.831
-59.0265
-42.3601
-25.2219
-10.0887
31.5553
37.1305
43.0539
49.0264
54.4706
59.451
63.739
67.0381
69.3522
70.8315
71.5996
71.8135
71.6144
71.0937
70.3222
69.3306
68.1265
66.7038
65.0377
63.0917
60.8235
58.1834
55.1148
51.5944
47.7033
43.5844
39.351
35.1053
30.9699
27.0843
23.598
20.6629
18.4261
17.0233
16.5839
17.2096
18.8861
21.4736
24.2778
23.558
17.35
10.1518
2.35083
-5.42657
-13.6984
-22.129
-30.4694
-38.8095
-47.0138
-55.0435
-62.94
-70.6659
-78.2265
-85.6169
-92.8037
-99.744
-106.374
-112.607
-118.341
-123.454
-127.814
-131.32
-133.852
-135.36
-135.788
-135.005
-132.863
-129.231
-124.003
-117.105
-108.494
-98.1758
-86.1997
-72.7004
-57.8582
-42.1682
-26.0497
-11.7283
29.267
34.5885
40.2523
45.9736
51.196
55.9836
60.1181
63.3112
65.5659
67.0269
67.8122
68.0718
67.9423
67.5136
66.8539
65.9952
64.9467
63.7041
62.2461
60.5391
58.5427
56.2086
53.4797
50.3272
46.8197
43.0844
39.2212
35.3191
31.4872
27.8527
24.5541
21.7347
19.5354
18.0875
17.5127
17.9079
19.2567
21.4088
23.7489
21.6903
15.7741
8.91933
1.50057
-5.88188
-13.7236
-21.7016
-29.5785
-37.4408
-45.1594
-52.6978
-60.0973
-67.3236
-74.3834
-81.2747
-87.9687
-94.4286
-100.598
-106.399
-111.742
-116.516
-120.599
-123.904
-126.319
-127.804
-128.309
-127.715
-125.877
-122.662
-117.96
-111.686
-103.789
-94.2594
-83.1362
-70.5401
-56.6485
-41.9232
-26.7959
-13.2657
27.1369
32.2169
37.6326
43.1128
48.1222
52.7239
56.7089
59.7986
61.9937
63.4339
64.2317
64.5306
64.4629
64.1155
63.5553
62.8144
61.9042
60.8218
59.5489
58.0553
56.3025
54.2444
51.8244
49.0102
45.8593
42.4848
38.974
35.4038
31.8702
28.4877
25.3835
22.691
20.5436
19.0662
18.3728
18.5556
19.5974
21.3451
23.2572
19.959
14.3208
7.7925
0.73695
-6.27167
-13.7057
-21.2562
-28.6967
-36.1093
-43.3715
-50.4498
-57.3841
-64.1433
-70.7351
-77.1603
-83.3936
-89.403
-95.1387
-100.533
-105.503
-109.949
-113.762
-116.86
-119.147
-120.588
-121.143
-120.7
-119.122
-116.277
-112.054
-106.36
-99.1363
-90.3624
-80.0659
-68.3536
-55.3959
-41.6185
-27.4522
-14.6925
25.1554
30.0053
35.1834
40.4323
45.2368
49.659
53.4991
56.4875
58.6229
60.0405
60.8473
61.1803
61.1671
60.892
60.4203
59.7847
58.997
58.0572
56.9491
55.6452
54.1104
52.3006
50.1609
47.6564
44.8351
41.7977
38.6199
35.3675
32.1242
28.9918
26.0859
23.5291
21.4461
19.9543
19.1595
19.1489
19.9063
21.2814
22.8013
18.3556
12.982
6.76501
0.0547324
-6.59881
-13.6471
-20.7933
-27.8213
-34.8106
-41.6438
-48.2907
-54.7893
-61.1117
-67.2666
-73.2558
-79.0582
-84.6456
-89.9744
-94.9836
-99.5992
-103.732
-107.281
-110.174
-112.326
-113.707
-114.286
-113.964
-112.607
-110.09
-106.3
-101.143
-94.5521
-86.4985
-76.9989
-66.1464
-54.1
-41.2503
-28.0127
-16.0012
23.3135
27.9435
32.8945
37.9211
42.5287
46.7777
50.4771
53.3661
55.4425
56.8359
57.6483
58.0105
58.0456
57.8354
57.4427
56.9008
56.2225
55.4091
54.4475
53.3127
51.9725
50.3856
48.4989
46.2767
43.7589
41.0345
38.1694
35.219
32.2556
29.369
26.6625
24.2479
22.2399
20.7479
19.8688
19.685
20.1819
21.2166
22.38
16.8724
11.7514
5.83065
-0.550937
-6.86774
-13.55
-20.3135
-26.9526
-33.5422
-39.9721
-46.2136
-52.3039
-58.2171
-63.9633
-69.5455
-74.945
-80.1375
-85.0847
-89.7312
-94.0114
-97.8443
-101.139
-103.829
-105.841
-107.152
-107.738
-107.508
-106.339
-104.11
-100.712
-96.0492
-90.0504
-82.6794
-73.9439
-63.9225
-52.7614
-40.8132
-28.4714
-17.1859
21.6025
26.0225
30.7559
35.5695
39.9872
44.069
47.6319
50.424
52.4415
53.8093
54.6246
55.0119
55.0898
54.9374
54.6157
54.1574
53.5764
52.8758
52.0443
51.06
49.8932
48.5058
46.847
44.8812
42.6414
40.2063
37.6327
34.9672
32.2715
29.6236
27.1154
24.8471
22.9231
21.4437
20.4975
20.1609
20.4222
21.1488
21.9901
15.5018
10.6215
4.98366
-1.08508
-7.08165
-13.4172
-19.8183
-26.0893
-32.3027
-38.3526
-44.2133
-49.9206
-55.4509
-60.8144
-66.0156
-71.0383
-75.8613
-80.4505
-84.7565
-88.7199
-92.2679
-95.3182
-97.8105
-99.6823
-100.915
-101.492
-101.333
-100.322
-98.3474
-95.3017
-91.0919
-85.6445
-78.9176
-70.9104
-61.6877
-51.3811
-40.3054
-28.8251
-18.2418
20.0141
24.2335
28.7586
33.3672
37.6025
41.5229
44.9534
47.6508
49.61
50.9511
51.7668
52.1753
52.2913
52.1907
51.9324
51.5487
51.0549
50.4544
49.7387
48.8878
47.8758
46.6665
45.2128
43.4789
41.4926
39.3233
37.02
34.6213
32.1794
29.7615
27.4481
25.328
23.4951
22.0401
21.0433
20.5745
20.6255
21.0763
21.6294
14.2365
9.58632
4.21818
-1.55234
-7.24481
-13.2505
-19.3083
-25.2318
-31.0898
-36.782
-42.2847
-47.6325
-52.8037
-57.8093
-62.6543
-67.3247
-71.8019
-76.0558
-80.042
-83.7071
-86.9854
-89.8025
-92.1039
-93.8364
-94.9866
-95.544
-95.4368
-94.5597
-92.8068
-90.0776
-86.2821
-81.346
-75.2235
-67.9065
-59.4472
-49.9604
-39.725
-29.0703
-19.1658
18.5408
22.5683
26.8935
31.3057
35.3654
39.13
42.4322
45.0371
46.9387
48.2521
49.066
49.4924
49.6416
49.5872
49.3853
49.0689
48.6524
48.1416
47.5284
46.7968
45.922
44.8718
43.6019
42.0775
40.3213
38.395
36.3409
34.1905
31.9874
29.789
27.6648
25.6929
23.9562
22.5359
21.5043
20.9237
20.79
20.9962
21.2935
13.0698
8.63922
3.52876
-1.95755
-7.3603
-13.0534
-18.7856
-24.3799
-29.9025
-35.2576
-40.4235
-45.4339
-50.2686
-54.9389
-59.4507
-63.7918
-67.9457
-71.8858
-75.5722
-78.9572
-81.9808
-84.5763
-86.6947
-88.2912
-89.3568
-89.8861
-89.8161
-89.0508
-87.4924
-85.0472
-81.6291
-77.1652
-71.6072
-64.9412
-57.2067
-48.5025
-39.0713
-29.2066
-19.9565
17.1752
21.0189
25.1529
29.376
33.2669
36.8814
40.0594
42.5742
44.4187
45.7037
46.5136
46.9547
47.1331
47.1195
46.9684
46.7115
46.3644
45.9329
45.4116
44.7855
44.0331
43.1247
42.019
40.6831
39.1352
37.4302
35.6044
33.6836
31.7036
29.7129
27.771
25.9453
24.3084
22.9317
21.8797
21.2074
20.9142
20.9065
20.9795
11.9951
7.77467
2.91002
-2.30499
-7.43247
-12.8279
-18.2513
-23.5344
-28.7397
-33.7771
-38.6264
-43.3198
-47.8391
-52.1956
-56.3958
-60.4288
-64.2807
-67.9274
-71.3333
-74.4551
-77.2394
-79.6255
-81.5696
-83.0343
-84.0147
-84.5107
-84.4663
-83.7945
-82.4063
-80.2151
-77.14
-73.1106
-68.0775
-62.0217
-54.9718
-47.0103
-38.3455
-29.2338
-20.6136
15.91
19.5783
23.5284
27.5704
31.2989
34.7686
37.8264
40.2537
42.0421
43.298
44.1017
44.5545
44.7581
44.7807
44.6745
44.4708
44.1854
43.8247
43.3846
42.8524
42.2088
41.4265
40.4677
39.3009
37.9409
36.4366
34.8192
33.1092
31.3363
29.5406
27.7725
26.0895
24.5542
23.2286
22.1695
21.4246
20.9963
20.804
20.682
11.0062
6.98641
2.35701
-2.59922
-7.46433
-12.577
-17.7074
-22.6954
-27.6013
-32.339
-36.8902
-41.286
-45.5094
-49.5723
-53.481
-57.2263
-60.796
-64.1687
-67.3123
-70.1878
-72.7473
-74.9362
-76.7152
-78.0537
-78.9504
-79.4093
-79.3812
-78.788
-77.5486
-75.5846
-72.8203
-69.1894
-64.6421
-59.1556
-52.7487
-45.4881
-37.55
-29.1542
-21.139
14.739
18.2391
22.0133
25.8808
29.4533
32.7836
35.7253
38.0674
39.8008
41.0273
41.8233
42.2849
42.51
42.5641
42.4977
42.3411
42.1104
41.8124
41.4445
40.9955
40.4482
39.7782
38.9505
37.935
36.7442
35.4211
33.9928
32.4757
30.8936
29.2797
27.6761
26.131
24.6976
23.4292
22.3747
21.5752
21.0353
20.6863
20.3977
10.0975
6.26973
1.86482
-2.84431
-7.45977
-12.3031
-17.1553
-21.8641
-26.4866
-30.9417
-35.2121
-39.3282
-43.2744
-47.0623
-50.6986
-54.1753
-57.4817
-60.5986
-63.4973
-66.1429
-68.4918
-70.4957
-72.1192
-73.3377
-74.1531
-74.5728
-74.5541
-74.0267
-72.918
-71.1569
-68.674
-65.4069
-61.3071
-56.349
-50.5427
-43.9402
-36.6881
-28.9705
-21.5351
13.6558
16.995
20.6003
24.3005
27.7228
30.9188
33.7483
36.0078
37.6874
38.8842
39.671
40.1391
40.3822
40.4639
40.4321
40.317
40.1345
39.8919
39.5876
39.2122
38.7503
38.1799
37.4688
36.5885
35.5494
34.3895
33.1323
31.7906
30.3835
28.9381
27.4887
26.0756
24.7432
23.5363
22.4968
21.6593
21.0298
20.5503
20.1211
9.26336
5.61908
1.42908
-3.04424
-7.42162
-12.0092
-16.597
-21.0411
-25.3957
-29.584
-33.5904
-37.4438
-41.1298
-44.6602
-48.0419
-51.2677
-54.3286
-57.2072
-59.8778
-62.3088
-64.4614
-66.2921
-67.7699
-68.8748
-69.6123
-69.9922
-69.9774
-69.5053
-68.5114
-66.9313
-64.7025
-61.767
-58.0779
-53.6078
-48.3596
-42.372
-35.7642
-28.6871
-21.8058
12.6546
15.8394
19.2829
22.822
26.0999
29.1664
31.8876
34.0673
35.6943
36.8617
37.6382
38.1107
38.369
38.4742
38.4727
38.3936
38.2531
38.0591
37.8107
37.5
37.1135
36.631
36.0233
35.2637
34.3602
33.347
32.244
31.0612
29.8137
28.5232
27.2176
25.9298
24.6963
23.5543
22.5386
21.678
20.9795
20.394
19.8487
8.49822
5.0299
1.04528
-3.20269
-7.35338
-11.6972
-16.034
-20.2274
-24.3287
-28.2653
-32.0229
-35.6293
-39.0715
-42.3609
-45.5047
-48.4966
-51.3285
-53.9852
-56.4435
-58.6749
-60.6447
-62.3139
-63.6557
-64.6541
-65.3175
-65.6578
-65.6431
-65.2176
-64.3244
-62.9062
-60.9066
-58.272
-54.9584
-50.9369
-46.2047
-40.7888
-34.7836
-28.3095
-21.9566
11.7293
14.766
18.054
21.4385
24.5773
27.5192
30.136
32.2383
33.8142
34.9524
35.718
36.1932
36.4641
36.5895
36.614
36.5662
36.4622
36.3103
36.1106
35.8564
35.5358
35.1308
34.6145
33.962
33.1798
32.2979
31.3334
30.294
29.1914
28.0426
26.8702
25.7004
24.5628
23.4877
22.5033
21.633
20.884
20.2147
19.5755
7.79673
4.49681
0.709185
-3.32353
-7.25759
-11.3698
-15.4682
-19.4237
-23.2853
-26.9844
-30.5078
-33.8823
-37.0958
-40.1598
-43.0813
-45.855
-48.4739
-50.9242
-53.1851
-55.2313
-57.0311
-58.5506
-59.7656
-60.6648
-61.2583
-61.5598
-61.5426
-61.1567
-60.3521
-59.0786
-57.2852
-54.9234
-51.9513
-48.3406
-44.0835
-39.1965
-33.7524
-27.844
-21.9936
10.874
13.7686
16.9072
20.143
23.1481
25.9699
28.4858
30.5133
32.0396
33.1491
33.9035
34.38
34.6616
34.8043
34.8513
34.8303
34.7578
34.6421
34.4844
34.2792
34.016
33.6787
33.2428
32.6852
32.0109
31.246
30.4056
29.4951
28.5234
27.5036
26.4537
25.3944
24.3491
23.3418
22.3948
21.5266
20.7439
20.0113
19.299
7.15361
4.01536
0.416227
-3.41046
-7.13818
-11.0292
-14.9009
-18.631
-22.2659
-25.7408
-29.0437
-32.2002
-35.1995
-38.0526
-40.7665
-43.3368
-45.7574
-48.016
-50.0939
-51.9681
-53.6107
-54.9915
-56.0894
-56.8964
-57.4245
-57.6891
-57.6672
-57.3152
-56.589
-55.4446
-53.8366
-51.7209
-49.0588
-45.8224
-42.0006
-37.6011
-32.6773
-27.2979
-21.9239
10.0831
12.8413
15.8364
18.929
21.8051
24.511
26.9296
28.8848
30.363
31.4445
32.1874
32.6645
32.9551
33.113
33.1793
33.1816
33.136
33.0513
32.9295
32.7663
32.5526
32.2741
31.9086
31.4347
30.8556
30.1949
29.465
28.67
27.816
26.9132
25.9755
25.019
24.0617
23.1222
22.2174
21.3614
20.5598
19.7822
19.0149
6.564
3.58063
0.162183
-3.46743
-6.99787
-10.6783
-14.3343
-17.8503
-21.2706
-24.5337
-27.629
-30.5807
-33.3793
-36.0352
-38.5557
-40.9365
-43.1728
-45.2534
-47.1615
-48.8768
-50.3742
-51.6268
-52.6165
-53.3385
-53.8062
-54.0359
-54.0084
-53.6855
-53.0287
-51.9994
-50.5577
-48.6636
-46.2818
-43.3855
-39.9609
-36.0087
-31.5658
-26.6792
-21.7552
9.35179
11.9791
14.8361
17.7907
20.5426
23.1366
25.4608
27.3459
28.7772
29.8313
30.5627
31.0398
31.3382
31.5095
31.5929
31.6154
31.593
31.5346
31.4434
31.3159
31.1447
30.9168
30.6124
30.2116
29.7166
29.1478
28.5161
27.8239
27.0753
26.278
25.4425