/*--------------------------------*- C++ -*----------------------------------*\
  =========                 |
  \\      /  F ield         | OpenFOAM: The Open Source CFD Toolbox
   \\    /   O peration     | Website:  https://openfoam.org
    \\  /    A nd           | Version:  7
     \\/     M anipulation  |
\*---------------------------------------------------------------------------*/
FoamFile
{
    version     2.0;
    format      ascii;
    class       surfaceScalarField;
    location    "50";
    object      phi;
}
// * * * * * * * * * * * * * * * * * * * * * * * * * * * * * * * * * * * * * //

dimensions      [0 3 -1 0 0 0 0];

internalField   nonuniform List<scalar> 
21254
(
-0.186952
0.207114
-0.0201607
0.229494
-0.0223805
0.249622
-0.0201276
0.268047
-0.0184241
0.285719
-0.0176723
0.300593
-0.0148738
0.312993
-0.0123994
0.323571
-0.0105783
0.331475
-0.00790324
0.337601
-0.00612548
0.342159
-0.0045572
0.34505
-0.00289136
0.346777
-0.00172653
0.347334
-0.000556128
0.346388
0.00094587
0.343995
0.00239353
0.339889
0.00410697
0.334179
0.0057105
0.326789
0.00739067
0.318013
0.00877655
0.307652
0.0103618
0.29634
0.011313
0.284422
0.011917
0.273186
0.0112352
0.263788
0.00939628
0.255611
0.00817511
0.247601
0.00800992
0.239443
0.00815708
0.230804
0.00863918
0.221574
0.00922988
0.211713
0.00987395
0.201163
0.0105442
0.189847
0.0113209
0.177486
0.0123627
0.163529
0.0139721
0.14692
0.0166114
0.125502
0.0214607
0.0947916
0.0307384
0.0924901
0.00269185
-0.164012
-0.0229397
-0.139985
-0.0240265
-0.111162
-0.0288223
-0.0800103
-0.0311518
-0.0474897
-0.0325209
-0.0144452
-0.0330451
0.0175575
-0.0320026
0.0476088
-0.0300505
0.0746327
-0.0270232
0.0979566
-0.0233231
0.11745
-0.0194925
0.133603
-0.0161525
0.146934
-0.0133312
0.157892
-0.0109567
0.167228
-0.00933607
0.175219
-0.00798921
0.182339
-0.00711947
0.188793
-0.00645318
0.194879
-0.00608472
0.200689
-0.00580958
0.20638
-0.00569003
0.211914
-0.00553374
0.217199
-0.00528749
0.221549
-0.00435478
0.224768
-0.00322318
0.227153
-0.00238942
0.228696
-0.00154597
0.229541
-0.00084683
0.229612
-6.74405e-05
0.228827
0.000775987
0.227264
0.0015582
0.225086
0.00217292
0.222397
0.00268238
0.219237
0.00315154
0.215463
0.00376589
0.210671
0.00478035
0.203838
0.00681932
0.190038
0.0139174
0.172063
0.0177978
-0.170632
0.191812
-0.0413399
0.213589
-0.0441566
0.236522
-0.0430602
0.258076
-0.0399785
0.279214
-0.0388093
0.299021
-0.0346806
0.31703
-0.0304089
0.333463
-0.027011
0.347936
-0.0223758
0.360477
-0.018666
0.371108
-0.0151881
0.379853
-0.0116359
0.386803
-0.00867573
0.39214
-0.00589298
0.396135
-0.00304801
0.398701
-0.000172037
0.399782
0.00302674
0.399409
0.0060841
0.397023
0.00977736
0.392783
0.0130166
0.38621
0.0169357
0.377467
0.0200574
0.366459
0.0229241
0.353724
0.0239693
0.340428
0.0226913
0.327015
0.0215863
0.313626
0.0213985
0.300518
0.0212647
0.28757
0.0215882
0.274674
0.0221274
0.261657
0.0229023
0.248351
0.0238478
0.234522
0.0251562
0.219932
0.0269568
0.204158
0.0297603
0.186158
0.0346173
0.164709
0.0429433
0.131088
0.0643754
0.0980621
0.0359225
-0.149095
-0.0444763
-0.125988
-0.0471326
-0.0989736
-0.0558371
-0.0704999
-0.0596254
-0.0403687
-0.0626528
-0.00891777
-0.0644962
0.0222188
-0.0631389
0.0509019
-0.058733
0.0768142
-0.0529349
0.0998468
-0.0463549
0.119808
-0.0394534
0.137019
-0.0333622
0.151848
-0.0281598
0.164514
-0.0236227
0.175506
-0.0203268
0.185119
-0.0176016
0.193643
-0.0156425
0.201392
-0.014201
0.208616
-0.0133076
0.215412
-0.0126038
0.221933
-0.0122106
0.228241
-0.0118412
0.234243
-0.0112917
0.239439
-0.00955418
0.243537
-0.00732617
0.246758
-0.00561463
0.249101
-0.00389173
0.250606
-0.00235445
0.251424
-0.000882339
0.251701
0.000490234
0.251395
0.00185855
0.250438
0.00312434
0.248737
0.00437568
0.246291
0.00558844
0.243088
0.00695885
0.23889
0.00896464
0.233815
0.0118808
0.223182
0.0246533
0.204706
0.0361154
-0.166127
0.187834
-0.0630471
0.209863
-0.0661853
0.233717
-0.0669141
0.255684
-0.061945
0.276794
-0.0599197
0.297147
-0.0550332
0.315484
-0.0487457
0.332178
-0.0437044
0.346802
-0.0369999
0.359564
-0.0314269
0.370482
-0.026106
0.379701
-0.020854
0.387057
-0.0160316
0.392926
-0.0117617
0.396995
-0.00711613
0.399809
-0.00298624
0.401187
0.00164977
0.401522
0.00574906
0.400594
0.0107062
0.398426
0.0151857
0.394974
0.0203888
0.390132
0.0248996
0.383893
0.0291626
0.376328
0.0315341
0.367867
0.0311502
0.358505
0.0309478
0.348071
0.0318308
0.336645
0.0326908
0.324341
0.0338909
0.311221
0.035247
0.297412
0.0367192
0.282922
0.0383346
0.267702
0.040379
0.251566
0.0430919
0.23412
0.0472154
0.214363
0.0543736
0.191203
0.0661282
0.157498
0.0981004
0.111573
0.0820363
-0.144362
-0.0662399
-0.120769
-0.070726
-0.0926707
-0.0839351
-0.0635877
-0.0887089
-0.0333701
-0.0928709
-0.00211108
-0.0957554
0.0285711
-0.0938206
0.0568586
-0.0870198
0.0826228
-0.0786982
0.105742
-0.0694729
0.125946
-0.0596573
0.143458
-0.0508734
0.158649
-0.0433506
0.171812
-0.0367853
0.183281
-0.0317946
0.193422
-0.0277425
0.202506
-0.0247256
0.210805
-0.0224992
0.218524
-0.0210248
0.22582
-0.0198991
0.232876
-0.0192658
0.239688
-0.0186533
0.24614
-0.017746
0.251906
-0.0153236
0.25668
-0.0121045
0.260574
-0.00951239
0.263646
-0.00696703
0.265927
-0.00463753
0.267494
-0.00244685
0.26834
-0.000362602
0.268546
0.00164868
0.268094
0.00357167
0.267005
0.00545869
0.265209
0.00737803
0.262622
0.00953914
0.258878
0.0126991
0.253655
0.0170909
0.243366
0.0350193
0.224902
0.0544662
-0.161096
0.183641
-0.0855921
0.206382
-0.0889263
0.231463
-0.0919942
0.254424
-0.0849058
0.276809
-0.0823047
0.298391
-0.0766149
0.318285
-0.0686399
0.336381
-0.0618002
0.352831
-0.0534497
0.367405
-0.0460007
0.380215
-0.0389154
0.391247
-0.0318848
0.400513
-0.0252978
0.408028
-0.0192756
0.414052
-0.0131394
0.418333
-0.00726702
0.420997
-0.00101369
0.421793
0.00495386
0.420962
0.0115382
0.418359
0.0177892
0.414101
0.024648
0.408429
0.0305726
0.401497
0.0360947
0.393832
0.0391982
0.385893
0.0390884
0.377765
0.0390739
0.369116
0.0404788
0.359802
0.0420053
0.349626
0.0440672
0.338373
0.0465014
0.32598
0.0491211
0.312352
0.0519624
0.297438
0.0552986
0.281061
0.0594733
0.262927
0.0653616
0.24209
0.0752156
0.217361
0.0908846
0.182765
0.132711
0.132656
0.132267
-0.1388
-0.0885354
-0.115007
-0.0945194
-0.0861927
-0.11275
-0.0567264
-0.118176
-0.0261433
-0.123454
0.00545463
-0.127353
0.0362339
-0.124599
0.0644968
-0.115282
0.0901014
-0.104302
0.113112
-0.0924827
0.133267
-0.0798116
0.150864
-0.0684701
0.166315
-0.0588008
0.17987
-0.0503394
0.191873
-0.0437966
0.202547
-0.0384157
0.212219
-0.0343963
0.221063
-0.0313423
0.229319
-0.0292802
0.237123
-0.0277013
0.244583
-0.026725
0.251759
-0.025829
0.258575
-0.0245629
0.264685
-0.0214371
0.26984
-0.0172628
0.274106
-0.0137828
0.277529
-0.0103946
0.280162
-0.00727257
0.282041
-0.00432523
0.28322
-0.00154896
0.283742
0.0011221
0.283626
0.00368169
0.282874
0.00620269
0.281475
0.0087677
0.279321
0.011682
0.27605
0.015956
0.27114
0.0219872
0.261524
0.0447109
0.243067
0.0727964
-0.158464
0.181892
-0.109019
0.205564
-0.112599
0.232054
-0.118484
0.255806
-0.108657
0.27918
-0.105679
0.301815
-0.0992494
0.322563
-0.089388
0.341582
-0.080819
0.359109
-0.0709758
0.374536
-0.0614275
0.388225
-0.0526039
0.400106
-0.0437654
0.410418
-0.0356097
0.418853
-0.0277102
0.425551
-0.019837
0.430532
-0.0122474
0.433858
-0.004339
0.435576
0.00323658
0.435454
0.0116609
0.433737
0.0195075
0.430283
0.0281026
0.425218
0.0356382
0.41876
0.0425531
0.411294
0.0466637
0.403385
0.0469966
0.395246
0.0472111
0.38676
0.0489631
0.37789
0.0508737
0.368526
0.0534309
0.35852
0.0565062
0.347637
0.0600096
0.335612
0.0639848
0.32219
0.0687228
0.307002
0.0746599
0.289556
0.0828132
0.268916
0.0958539
0.243631
0.11619
0.208381
0.167979
0.157488
0.183298
-0.135141
-0.111859
-0.110634
-0.119026
-0.0805941
-0.14279
-0.0502579
-0.148513
-0.0188987
-0.154814
0.0134119
-0.159663
0.044745
-0.155932
0.0732763
-0.143812
0.098952
-0.129977
0.121986
-0.115515
0.14211
-0.099935
0.159728
-0.0860877
0.17532
-0.0743915
0.189098
-0.064117
0.201404
-0.056102
0.212514
-0.0495252
0.222615
-0.0444963
0.231902
-0.0406283
0.240583
-0.037961
0.248802
-0.0359193
0.256649
-0.0345716
0.264163
-0.0333423
0.271297
-0.0316986
0.277758
-0.0279003
0.283275
-0.022784
0.287889
-0.0184003
0.291633
-0.014143
0.294562
-0.010204
0.29671
-0.00647219
0.298103
-0.00294604
0.298795
0.000425879
0.298843
0.00362989
0.298242
0.00679897
0.296959
0.0100442
0.29496
0.0136757
0.291874
0.0190336
0.287142
0.0267062
0.278173
0.0537257
0.260172
0.0907273
-0.156578
0.181022
-0.133463
0.205942
-0.137518
0.233776
-0.146318
0.258652
-0.133533
0.282978
-0.130005
0.30685
-0.123122
0.328455
-0.110993
0.348582
-0.100946
0.366946
-0.0893395
0.383408
-0.0778886
0.398199
-0.0673951
0.411142
-0.0567075
0.422426
-0.0468932
0.432026
-0.0373096
0.4398
-0.0276103
0.446023
-0.01847
0.450358
-0.00867291
0.452874
0.000720746
0.45368
0.0108558
0.452586
0.0206034
0.44962
0.0310692
0.444979
0.0402803
0.438795
0.0487375
0.431463
0.0539961
0.423473
0.0549856
0.415076
0.0556078
0.40623
0.0578079
0.396955
0.0601472
0.387267
0.0631188
0.377113
0.0666615
0.366445
0.0706845
0.355037
0.0753943
0.342631
0.0811341
0.328776
0.0885192
0.312806
0.0987946
0.293479
0.115185
0.269058
0.140635
0.234172
0.20288
0.183759
0.233802
-0.13227
-0.136167
-0.106903
-0.144394
-0.0755024
-0.174192
-0.0439834
-0.180032
-0.0115607
-0.187237
0.0217701
-0.192994
0.0539556
-0.188117
0.0830015
-0.172857
0.108948
-0.155922
0.132104
-0.138671
0.152263
-0.120094
0.16986
-0.103683
0.185483
-0.0900141
0.199401
-0.0780336
0.21192
-0.068621
0.223311
-0.0609149
0.233744
-0.0549279
0.243435
-0.0503181
0.252514
-0.047039
0.261122
-0.0445261
0.269354
-0.0428033
0.277229
-0.0412166
0.284685
-0.0391544
0.291528
-0.0347455
0.297418
-0.0286772
0.302355
-0.0233412
0.306429
-0.0182217
0.309636
-0.0134145
0.312029
-0.00886568
0.313633
-0.00455551
0.314497
-0.000443823
0.314653
0.00346815
0.314108
0.00733615
0.31289
0.011253
0.310863
0.0156919
0.307765
0.0221162
0.302943
0.0315141
0.294294
0.0624203
0.27686
0.108068
-0.155625
0.181377
-0.159215
0.207362
-0.163503
0.236742
-0.175697
0.262855
-0.159646
0.288385
-0.155534
0.313298
-0.148036
0.335992
-0.133686
0.356912
-0.121865
0.376227
-0.108654
0.393534
-0.0951955
0.409073
-0.0829331
0.422961
-0.0705951
0.435075
-0.0590068
0.445473
-0.0477071
0.454195
-0.036332
0.461072
-0.0253458
0.466245
-0.0138459
0.469582
-0.00261514
0.471107
0.00933221
0.47074
0.0209706
0.468513
0.0332976
0.464481
0.0443132
0.458948
0.0542706
0.452094
0.0608504
0.444402
0.0626765
0.436092
0.0639164
0.427161
0.0667367
0.417635
0.0696717
0.407586
0.0731653
0.396982
0.077264
0.385835
0.0818352
0.374093
0.0871349
0.361639
0.0935893
0.348139
0.102017
0.333068
0.113869
0.315206
0.133043
0.292577
0.163282
0.259454
0.236022
0.210463
0.282903
-0.130117
-0.161675
-0.103647
-0.170865
-0.0707671
-0.207073
-0.0379065
-0.212893
-0.00422629
-0.220917
0.0304092
-0.227629
0.0636681
-0.221375
0.0934825
-0.202671
0.119906
-0.182345
0.143356
-0.162119
0.163622
-0.140359
0.18124
-0.121301
0.196883
-0.105656
0.210854
-0.0920039
0.223486
-0.0812523
0.23506
-0.072489
0.245774
-0.0656408
0.255772
-0.0603153
0.265201
-0.056467
0.274162
-0.0534869
0.282738
-0.0513779
0.29094
-0.0494192
0.298746
-0.0469604
0.305897
-0.0418991
0.31217
-0.034952
0.317486
-0.0286626
0.321873
-0.0226119
0.325382
-0.0169282
0.32802
-0.0115024
0.329845
-0.00638451
0.330866
-0.00146749
0.331149
0.00318072
0.330703
0.00777801
0.329485
0.0124653
0.32746
0.0177121
0.324277
0.0252912
0.319286
0.0364932
0.310714
0.0710137
0.293814
0.12493
-0.15525
0.182333
-0.186297
0.209721
-0.19089
0.240758
-0.206734
0.268058
-0.186946
0.294837
-0.182313
0.320952
-0.17415
0.344612
-0.157346
0.366645
-0.143899
0.386712
-0.12872
0.404855
-0.113338
0.421322
-0.0994002
0.435966
-0.0852389
0.448852
-0.0718918
0.460088
-0.0589429
0.469605
-0.0458478
0.477354
-0.0330942
0.483349
-0.0198401
0.487518
-0.00678365
0.489762
0.00708978
0.490075
0.0206584
0.488521
0.0348531
0.485092
0.0477438
0.480008
0.0593558
0.473604
0.0672541
0.466195
0.0700856
0.458022
0.0720887
0.449132
0.075626
0.439521
0.0792815
0.429223
0.0834628
0.418287
0.0882
0.406663
0.0934639
0.394374
0.0994257
0.38133
0.106638
0.367419
0.115932
0.352244
0.129053
0.334954
0.150337
0.313898
0.184358
0.283398
0.266538
0.236873
0.329506
-0.128501
-0.188424
-0.100852
-0.198514
-0.0662504
-0.241675
-0.0318436
-0.247301
0.003301
-0.256062
0.0393729
-0.263701
0.0739314
-0.255932
0.104692
-0.23343
0.131763
-0.209414
0.15564
-0.185994
0.176112
-0.16083
0.193797
-0.138984
0.20946
-0.121318
0.22345
-0.105993
0.236127
-0.0939288
0.247853
-0.0842144
0.258741
-0.0765277
0.268987
-0.0705602
0.278696
-0.0661746
0.287973
-0.0627633
0.296856
-0.06026
0.305397
-0.0579597
0.313528
-0.0550916
0.321043
-0.0494145
0.327675
-0.041586
0.333347
-0.0343386
0.338077
-0.0273457
0.341895
-0.0207508
0.344799
-0.0144076
0.346828
-0.00841931
0.34804
-0.00268539
0.348444
0.00276966
0.348076
0.0081387
0.346901
0.0136308
0.344825
0.0197769
0.341553
0.0285477
0.336401
0.04163
0.327808
0.0796302
0.311451
0.141218
-0.155526
0.183986
-0.214757
0.212811
-0.219715
0.245538
-0.239461
0.274208
-0.215615
0.302412
-0.210517
0.329844
-0.201583
0.354671
-0.182173
0.377559
-0.166786
0.398657
-0.149818
0.41757
-0.13225
0.434683
-0.116513
0.450062
-0.100618
0.463721
-0.0855496
0.475678
-0.0708994
0.485927
-0.0560963
0.494481
-0.0416481
0.501209
-0.0265674
0.506066
-0.0116401
0.509009
0.00414844
0.509988
0.0196803
0.509063
0.035779
0.506261
0.0505462
0.501738
0.0638804
0.495789
0.0732028
0.488737
0.0771381
0.480771
0.0800538
0.471935
0.0844603
0.462291
0.0889234
0.451888
0.0938627
0.440709
0.099377
0.428756
0.105419
0.416005
0.112176
0.402395
0.120248
0.387795
0.130529
0.371977
0.144873
0.354313
0.167996
0.333838
0.204846
0.305821
0.294575
0.262314
0.37311
-0.127305
-0.216645
-0.0983013
-0.227518
-0.0619064
-0.278071
-0.0258916
-0.283316
0.0109208
-0.292874
0.0486207
-0.3014
0.0846961
-0.292007
0.116583
-0.265316
0.144455
-0.237285
0.168894
-0.210433
0.189683
-0.181618
0.207512
-0.156811
0.223225
-0.13703
0.237227
-0.119994
0.249936
-0.106637
0.261705
-0.0959821
0.272739
-0.0875616
0.283158
-0.0809788
0.29309
-0.0761056
0.302635
-0.0723071
0.311837
-0.0694622
0.320663
-0.0667848
0.329107
-0.0635356
0.33697
-0.0572791
0.343987
-0.0486054
0.350004
-0.0403582
0.355081
-0.0324273
0.359189
-0.0248625
0.362383
-0.0176013
0.364654
-0.010693
0.366041
-0.00407688
0.366592
0.00221498
0.366298
0.00842853
0.365159
0.014765
0.363077
0.021854
0.35973
0.0318882
0.354392
0.0469551
0.34579
0.0882422
0.329977
0.157013
-0.156145
0.186201
-0.244813
0.216566
-0.250079
0.251166
-0.27406
0.281282
-0.245731
0.310772
-0.240007
0.339639
-0.23045
0.365603
-0.208136
0.389579
-0.190762
0.411613
-0.171851
0.431344
-0.15198
0.449242
-0.134411
0.465414
-0.116789
0.479707
-0.099842
0.492306
-0.0834977
0.503327
-0.0671163
0.512512
-0.0508331
0.51994
-0.0339945
0.525479
-0.0171774
0.529147
0.00048093
0.530855
0.017974
0.530503
0.0361322
0.528314
0.0527366
0.524341
0.0678544
0.518876
0.0786694
0.512165
0.0838499
0.504368
0.0878505
0.49564
0.0931872
0.486017
0.0985449
0.475486
0.104392
0.464139
0.110723
0.451924
0.117638
0.438792
0.125309
0.424692
0.13435
0.409487
0.145737
0.392947
0.16142
0.374473
0.186474
0.353601
0.225733
0.327126
0.321065
0.286502
0.4138
-0.12653
-0.24626
-0.0960578
-0.257991
-0.0576974
-0.316432
-0.01982
-0.321194
0.0187216
-0.331416
0.0582834
-0.340962
0.0959544
-0.329677
0.12913
-0.29849
0.157968
-0.266122
0.183118
-0.235582
0.204323
-0.202821
0.222359
-0.174846
0.238174
-0.152844
0.252192
-0.134012
0.264908
-0.119351
0.276718
-0.107792
0.28781
-0.0986519
0.298351
-0.0915198
0.308484
-0.0862371
0.318251
-0.0820733
0.327672
-0.0788824
0.336803
-0.0759151
0.345563
-0.0722958
0.35376
-0.0654766
0.361124
-0.0559708
0.367522
-0.0467584
0.372922
-0.0378313
0.377366
-0.0293104
0.380832
-0.0210686
0.383343
-0.01321
0.384944
-0.00568524
0.385624
0.00152727
0.385439
0.00860519
0.384347
0.0158469
0.382239
0.0239501
0.378798
0.0353128
0.373338
0.052398
0.364744
0.0968446
0.349439
0.172265
-0.157258
0.188893
-0.276447
0.220839
-0.282024
0.25736
-0.31058
0.289125
-0.277497
0.320203
-0.271084
0.35052
-0.260768
0.377617
-0.235233
0.402776
-0.215921
0.425801
-0.194875
0.446421
-0.172599
0.465059
-0.153049
0.481818
-0.133548
0.496836
-0.11486
0.510196
-0.096857
0.521745
-0.0786652
0.53163
-0.060717
0.539708
-0.042072
0.54596
-0.0234282
0.550233
-0.00379085
0.552557
0.015651
0.552869
0.0358217
0.551217
0.0543893
0.547786
0.0712868
0.5428
0.0836557
0.536469
0.0901815
0.528965
0.0953539
0.520358
0.101795
0.510713
0.108187
0.50014
0.114963
0.48859
0.122268
0.476118
0.130113
0.462671
0.138754
0.448157
0.148863
0.432421
0.16147
0.415204
0.178637
0.395929
0.205742
0.374138
0.247536
0.348208
0.347013
0.309726
0.452368
-0.125984
-0.277535
-0.0939889
-0.289987
-0.053547
-0.356875
-0.0137213
-0.36102
0.0267964
-0.371934
0.0682719
-0.382437
0.107745
-0.36915
0.14236
-0.333104
0.17231
-0.296071
0.198256
-0.261526
0.219998
-0.224561
0.238325
-0.193172
0.254297
-0.168816
0.268368
-0.148082
0.281092
-0.132075
0.292899
-0.119598
0.304028
-0.109781
0.314659
-0.10215
0.324897
-0.096474
0.334839
-0.0920147
0.344516
-0.0885591
0.353902
-0.0853005
0.362934
-0.0813274
0.371471
-0.0740142
0.379189
-0.0636901
0.385938
-0.0535095
0.391702
-0.0435988
0.39646
-0.0340725
0.400234
-0.0248412
0.402996
-0.0159758
0.404784
-0.00747763
0.405646
0.000660139
0.405557
0.00869142
0.404519
0.0168798
0.402391
0.0260741
0.398893
0.0388039
0.39329
0.0579903
0.384711
0.105426
0.369971
0.186997
-0.158625
0.192046
-0.309867
0.225741
-0.31572
0.264291
-0.349129
0.29766
-0.310866
0.330333
-0.303758
0.362211
-0.292646
0.390771
-0.263792
0.417043
-0.242192
0.441108
-0.218939
0.462593
-0.194084
0.482075
-0.17253
0.499635
-0.151108
0.515221
-0.130445
0.529147
-0.110782
0.541394
-0.0909119
0.551896
-0.0712185
0.560567
-0.0507415
0.567384
-0.0302444
0.57228
-0.00868541
0.57523
0.0127018
0.576163
0.0348904
0.575126
0.0554275
0.572239
0.074175
0.567722
0.0881743
0.56176
0.0961444
0.554521
0.102594
0.546064
0.110251
0.536495
0.117755
0.52584
0.125616
0.514156
0.133951
0.501439
0.142833
0.487656
0.152537
0.47276
0.163759
0.456534
0.177698
0.438725
0.196451
0.418744
0.225724
0.395949
0.270342
0.369803
0.373174
0.332697
0.489521
-0.125704
-0.310456
-0.0919882
-0.323703
-0.0493935
-0.39947
-0.0074689
-0.402945
0.0351182
-0.414521
0.0786776
-0.425997
0.120123
-0.410595
0.156283
-0.369263
0.187459
-0.327246
0.214356
-0.288422
0.236728
-0.246932
0.255437
-0.21188
0.271603
-0.18498
0.285759
-0.162238
0.298499
-0.144814
0.310312
-0.131411
0.321436
-0.120905
0.332107
-0.11282
0.34245
-0.106817
0.352522
-0.102086
0.362372
-0.0984086
0.371976
-0.0949034
0.38131
-0.0906613
0.390161
-0.0828649
0.398228
-0.0717573
0.405333
-0.0606163
0.411435
-0.0497037
0.416537
-0.039178
0.420586
-0.0288915
0.423623
-0.0190185
0.425637
-0.00949955
0.426653
-0.000365167
0.426698
0.0086375
0.425699
0.0178673
0.423577
0.028183
0.420008
0.0423568
0.414284
0.0636959
0.405785
0.113922
0.391625
0.201114
-0.160401
0.195548
-0.345014
0.231095
-0.351266
0.271793
-0.389827
0.306995
-0.346068
0.341403
-0.338166
0.374907
-0.32615
0.404864
-0.293749
0.432439
-0.269767
0.457544
-0.244043
0.479979
-0.216518
0.500261
-0.192812
0.518518
-0.169364
0.534861
-0.146788
0.549434
-0.125354
0.562241
-0.103719
0.57328
-0.0822567
0.582555
-0.0600155
0.589992
-0.0376805
0.595486
-0.0141787
0.598953
0.00923564
0.600461
0.0333838
0.59996
0.0559303
0.597595
0.076541
0.593588
0.0921825
0.588089
0.101644
0.581132
0.109551
0.572874
0.118509
0.563363
0.127265
0.552672
0.136304
0.540864
0.145755
0.527936
0.155762
0.513844
0.166628
0.49853
0.17907
0.48182
0.194405
0.463451
0.214819
0.44284
0.246327
0.4192
0.293991
0.392493
0.399898
0.356174
0.525906
-0.125583
-0.345274
-0.0901815
-0.359105
-0.0452217
-0.444431
-0.00108774
-0.44708
0.0437544
-0.459363
0.0895984
-0.47184
0.133054
-0.45405
0.170946
-0.407155
0.203464
-0.359763
0.231412
-0.316369
0.254514
-0.270033
0.273685
-0.231049
0.290131
-0.201425
0.304426
-0.176532
0.317198
-0.157585
0.329006
-0.143219
0.340125
-0.132023
0.350808
-0.123502
0.361191
-0.117199
0.371367
-0.112261
0.381358
-0.108398
0.391174
-0.104719
0.400749
-0.100236
0.409915
-0.0920305
0.41831
-0.0801522
0.425762
-0.0680699
0.432211
-0.0561543
0.43762
-0.0445893
0.441989
-0.0332603
0.445297
-0.0223297
0.447548
-0.0117555
0.44876
-0.00158194
0.448923
0.00846972
0.448004
0.0187824
0.445874
0.0303089
0.442272
0.045953
0.436454
0.0695026
0.427989
0.122388
0.414458
0.214643
-0.162377
0.199466
-0.382102
0.236969
-0.388769
0.279954
-0.432812
0.317034
-0.383148
0.353215
-0.374348
0.388462
-0.361397
0.419943
-0.325231
0.448816
-0.298639
0.475123
-0.27035
0.498528
-0.239922
0.519735
-0.214018
0.53874
-0.188369
0.555751
-0.163799
0.570949
-0.140551
0.584254
-0.117023
0.595911
-0.0939133
0.605747
-0.0698503
0.613716
-0.0456495
0.619794
-0.0202556
0.623864
0.00516686
0.6259
0.0313495
0.625958
0.0558737
0.624124
0.0783773
0.620585
0.095722
0.615478
0.106754
0.608831
0.116199
0.600798
0.126543
0.591407
0.136655
0.580713
0.146997
0.568792
0.157673
0.555648
0.168909
0.541265
0.181009
0.525544
0.194789
0.508377
0.211571
0.489452
0.233745
0.468245
0.267534
0.443838
0.318404
0.416559
0.427188
0.380734
0.561756
-0.125759
-0.381892
-0.0883385
-0.396526
-0.040975
-0.491795
0.00553563
-0.493591
0.0527181
-0.506546
0.100924
-0.520047
0.146658
-0.499783
0.186376
-0.446872
0.220393
-0.393779
0.249494
-0.345468
0.273419
-0.293957
0.293114
-0.250742
0.309901
-0.218211
0.324361
-0.190992
0.337196
-0.17042
0.349026
-0.155048
0.360138
-0.143135
0.370791
-0.134154
0.381194
-0.127601
0.391441
-0.122508
0.401548
-0.118504
0.411525
-0.114695
0.42134
-0.110051
0.430785
-0.101475
0.439495
-0.0888622
0.447282
-0.0758573
0.45407
-0.0629442
0.459823
-0.0503449
0.464503
-0.0379419
0.468091
-0.0259227
0.470578
-0.0142498
0.471971
-0.00298576
0.472281
0.00814884
0.471442
0.0196097
0.469331
0.0324062
0.465688
0.0495781
0.459805
0.0753653
0.451461
0.130721
0.43854
0.227524
-0.164619
0.203801
-0.421284
0.243327
-0.428295
0.288713
-0.478198
0.327744
-0.422179
0.365845
-0.41245
0.403018
-0.39857
0.436019
-0.358232
0.466313
-0.328933
0.493946
-0.297981
0.518426
-0.264401
0.540497
-0.236088
0.560315
-0.208186
0.577931
-0.181414
0.59376
-0.15638
0.60776
-0.131023
0.619935
-0.106088
0.630316
-0.0802304
0.6388
-0.0541323
0.645315
-0.0267694
0.649896
0.000586838
0.65249
0.028757
0.653021
0.0553438
0.651694
0.0797055
0.648638
0.0987791
0.643966
0.111428
0.637698
0.122467
0.629864
0.134377
0.620607
0.145912
0.609973
0.15763
0.59797
0.169672
0.584651
0.182231
0.569971
0.195686
0.553906
0.210851
0.536262
0.229208
0.516765
0.253241
0.494966
0.289324
0.469935
0.343443
0.442096
0.455042
0.406726
0.597172
-0.125999
-0.420512
-0.0866749
-0.43585
-0.036656
-0.541814
0.0123537
-0.542601
0.0620386
-0.556231
0.112829
-0.570837
0.160889
-0.547843
0.202607
-0.488589
0.238192
-0.429363
0.268588
-0.375862
0.293416
-0.318784
0.313753
-0.271078
0.330938
-0.235394
0.345631
-0.205684
0.358571
-0.183359
0.370415
-0.166891
0.381503
-0.154224
0.392152
-0.144802
0.402548
-0.137997
0.412818
-0.132777
0.423008
-0.128694
0.433143
-0.124829
0.443164
-0.120072
0.452864
-0.111174
0.461894
-0.0978917
0.469999
-0.0839627
0.477118
-0.0700638
0.483186
-0.0564137
0.488179
-0.0429345
0.49204
-0.029785
0.494784
-0.0169981
0.496399
-0.00460686
0.496842
0.00770057
0.49611
0.0203363
0.494036
0.0344779
0.490369
0.053239
0.48445
0.0812744
0.47619
0.138983
0.463935
0.23978
-0.167174
0.208513
-0.462623
0.250167
-0.469948
0.298062
-0.526093
0.339153
-0.463271
0.379351
-0.452648
0.418467
-0.437686
0.453155
-0.39292
0.484987
-0.360765
0.513899
-0.326892
0.539456
-0.289957
0.562495
-0.259127
0.583159
-0.22885
0.601601
-0.199856
0.618029
-0.172807
0.632575
-0.145568
0.645286
-0.118798
0.656167
-0.0911102
0.665153
-0.0631173
0.67225
-0.0338655
0.677297
-0.00445894
0.680335
0.0257201
0.681397
0.0542832
0.680523
0.0805816
0.677922
0.101381
0.673653
0.115698
0.667731
0.128391
0.660186
0.141923
0.651089
0.155009
0.640495
0.168223
0.628442
0.181724
0.614976
0.195697
0.600056
0.210604
0.583608
0.227294
0.56551
0.247303
0.545484
0.273264
0.523118
0.311688
0.497479
0.369084
0.469174
0.483354
0.434293
0.632061
-0.126397
-0.461289
-0.0849302
-0.477318
-0.0321949
-0.59455
0.0194532
-0.59425
0.0717995
-0.608578
0.125298
-0.624336
0.175881
-0.598426
0.219704
-0.532411
0.257015
-0.466673
0.288767
-0.407612
0.314621
-0.344637
0.335641
-0.292097
0.353293
-0.253046
0.368261
-0.220651
0.381346
-0.196443
0.393238
-0.178782
0.404321
-0.165306
0.414936
-0.155417
0.425315
-0.148375
0.4356
-0.143061
0.445838
-0.138932
0.456074
-0.135064
0.466282
-0.130279
0.476254
-0.121145
0.485555
-0.107192
0.493961
-0.0923686
0.501398
-0.0775014
0.507787
-0.0628041
0.513092
-0.0482408
0.517254
-0.0339518
0.520253
-0.0200047
0.522061
-0.00642455
0.522692
0.00705696
0.522056
0.0209585
0.520035
0.036484
0.516368
0.056887
0.510427
0.0871941
0.502313
0.147081
0.490755
0.251301
-0.169919
0.213483
-0.506187
0.257456
-0.513922
0.308018
-0.576655
0.351334
-0.506587
0.393678
-0.494992
0.434821
-0.47883
0.471344
-0.429443
0.504766
-0.394187
0.535045
-0.35717
0.561811
-0.316722
0.585951
-0.283266
0.607449
-0.250346
0.626628
-0.219035
0.643748
-0.189926
0.658856
-0.160676
0.672121
-0.132063
0.683494
-0.102483
0.69299
-0.0726124
0.7005
-0.0413747
0.706051
-0.0100084
0.709539
0.0222336
0.711019
0.0528043
0.710626
0.0809761
0.708458
0.103551
0.704631
0.119527
0.699049
0.133973
0.691773
0.149201
0.682861
0.163922
0.672338
0.178746
0.66028
0.19378
0.646684
0.209296
0.631535
0.225752
0.614761
0.244063
0.596229
0.265831
0.575699
0.293788
0.552726
0.334654
0.526553
0.395263
0.497858
0.512061
0.463503
0.666448
-0.126917
-0.504291
-0.0832331
-0.521003
-0.0276226
-0.650161
0.0268638
-0.648737
0.0820036
-0.663718
0.138335
-0.680667
0.191639
-0.651729
0.237682
-0.578454
0.27685
-0.50584
0.310077
-0.440838
0.337013
-0.371572
0.358807
-0.31389
0.377001
-0.271239
0.392305
-0.235955
0.405559
-0.209697
0.417546
-0.190769
0.428637
-0.176397
0.439234
-0.166013
0.44958
-0.15872
0.459847
-0.153327
0.470129
-0.149213
0.480449
-0.145383
0.490814
-0.140643
0.500991
-0.131321
0.510554
-0.116754
0.519265
-0.101079
0.527004
-0.0852398
0.533718
-0.0695179
0.539318
-0.0538394
0.543772
-0.0384073
0.547031
-0.023267
0.549083
-0.00848101
0.549875
0.00625886
0.549352
0.0214765
0.547406
0.038426
0.54375
0.0605385
0.537849
0.0930845
0.52987
0.155062
0.518984
0.26219
-0.17295
0.218912
-0.552149
0.265316
-0.560325
0.318571
-0.629911
0.364327
-0.552343
0.408844
-0.539509
0.452232
-0.522218
0.490595
-0.467806
0.525716
-0.429307
0.557513
-0.388967
0.585562
-0.344771
0.610677
-0.30838
0.633178
-0.272846
0.6531
-0.238956
0.670903
-0.207729
0.686701
-0.176473
0.700469
-0.14583
0.71237
-0.114383
0.722321
-0.082562
0.730327
-0.0493793
0.73628
-0.0159603
0.740187
0.018328
0.742135
0.050857
0.742114
0.0809997
0.740364
0.105301
0.736911
0.122982
0.731681
0.139206
0.724704
0.156179
0.715999
0.172627
0.705622
0.189124
0.693558
0.205844
0.679861
0.222993
0.6645
0.24111
0.647415
0.261144
0.628489
0.28475
0.607426
0.314846
0.58393
0.358143
0.557225
0.421965
0.528148
0.54114
0.494405
0.700185
-0.127605
-0.549636
-0.0815392
-0.567069
-0.0228452
-0.708856
0.0345642
-0.706147
0.0927045
-0.721859
0.152068
-0.74003
0.208146
-0.707807
0.256628
-0.626935
0.297737
-0.546947
0.332581
-0.47568
0.360706
-0.399696
0.383352
-0.336536
0.402142
-0.290028
0.417824
-0.251637
0.431314
-0.223186
0.44339
-0.202845
0.45453
-0.187536
0.465096
-0.176579
0.47541
-0.169034
0.485652
-0.163567
0.495941
-0.159502
0.506327
-0.155768
0.516835
-0.151149
0.527217
-0.141702
0.537029
-0.126564
0.545998
-0.110048
0.554021
-0.093263
0.561022
-0.076519
0.566936
-0.0597545
0.571668
-0.0431439
0.575206
-0.0268112
0.577471
-0.0107556
0.578465
0.00525198
0.578098
0.0218284
0.576205
0.0403023
0.572626
0.0640977
0.566755
0.0989322
0.558991
0.162808
0.548794
0.27235
-0.176193
0.224681
-0.600636
0.27356
-0.609204
0.329857
-0.686209
0.377935
-0.600422
0.424946
-0.586521
0.470594
-0.567867
0.511037
-0.508249
0.547882
-0.466151
0.581243
-0.422327
0.610609
-0.374136
0.63697
-0.334741
0.660385
-0.29626
0.681211
-0.259782
0.69974
-0.226257
0.716136
-0.192868
0.730483
-0.160176
0.742862
-0.126762
0.753252
-0.0929505
0.761645
-0.0577712
0.768026
-0.0223402
0.772374
0.0139814
0.774649
0.0485838
0.775026
0.0806239
0.773684
0.106646
0.770607
0.12606
0.765761
0.144054
0.759074
0.162867
0.750575
0.181128
0.740305
0.199395
0.728298
0.21785
0.714534
0.23676
0.698993
0.256651
0.681628
0.278505
0.662312
0.304058
0.640803
0.336349
0.616777
0.382158
0.589577
0.449171
0.56017
0.570559
0.527051
0.733328
-0.128378
-0.597451
-0.0798072
-0.61564
-0.0178932
-0.77077
0.0426019
-0.766643
0.103895
-0.783153
0.166464
-0.802599
0.225566
-0.766908
0.276555
-0.677923
0.31976
-0.590151
0.356287
-0.512206
0.385704
-0.429112
0.409289
-0.36012
0.428738
-0.309477
0.444873
-0.267771
0.458628
-0.236941
0.470857
-0.215074
0.482036
-0.198715
0.492603
-0.187146
0.502882
-0.179312
0.513117
-0.173802
0.523384
-0.169768
0.533826
-0.166209
0.544437
-0.161759
0.555007
-0.152271
0.565043
-0.136599
0.574247
-0.11925
0.58256
-0.101575
0.589845
-0.083803
0.596026
-0.0659344
0.601072
-0.0481902
0.604865
-0.030606
0.607377
-0.0132718
0.608545
0.00407908
0.608325
0.0220426
0.606562
0.0420603
0.603033
0.0676212
0.597273
0.104683
0.589695
0.17039
0.580205
0.281846
-0.179701
0.23081
-0.651745
0.282357
-0.660751
0.341704
-0.745555
0.392482
-0.651201
0.441935
-0.635974
0.490089
-0.616021
0.532547
-0.550708
0.57132
-0.504924
0.606361
-0.457367
0.637186
-0.404961
0.664708
-0.362262
0.689244
-0.320795
0.71093
-0.281467
0.730224
-0.245551
0.747235
-0.209878
0.762184
-0.175125
0.775037
-0.139614
0.785869
-0.103782
0.794718
-0.0666191
0.80146
-0.0290807
0.806147
0.00929633
0.808799
0.0459326
0.80953
0.0798944
0.808542
0.107636
0.805839
0.128764
0.801309
0.148585
0.794913
0.169265
0.786682
0.18936
0.776572
0.209505
0.764603
0.22982
0.750787
0.250575
0.735115
0.272321
0.717505
0.29611
0.697833
0.323724
0.675887
0.358286
0.651373
0.406663
0.623709
0.476828