/*--------------------------------*- C++ -*----------------------------------*\
  =========                 |
  \\      /  F ield         | OpenFOAM: The Open Source CFD Toolbox
   \\    /   O peration     | Website:  https://openfoam.org
    \\  /    A nd           | Version:  7
     \\/     M anipulation  |
\*---------------------------------------------------------------------------*/
FoamFile
{
    version     2.0;
    format      ascii;
    class       volVectorField;
    location    "50";
    object      U;
}
// * * * * * * * * * * * * * * * * * * * * * * * * * * * * * * * * * * * * * //

dimensions      [0 1 -1 0 0 0 0];

internalField   nonuniform List<vector> 
10720
(
(1.21806 22.3225 -7.09702e-18)
(2.63623 24.6059 6.4483e-18)
(4.48164 26.848 0)
(6.65991 28.6864 -2.20037e-16)
(9.12395 30.1807 2.48691e-16)
(11.8165 31.2734 2.11125e-16)
(14.5967 31.8613 3.25143e-16)
(17.3746 31.9691 0)
(20.0734 31.6412 0)
(22.6121 30.9069 0)
(24.9554 29.8375 1.00539e-16)
(27.0841 28.5059 0)
(28.9792 26.9511 2.00534e-15)
(30.6444 25.2298 0)
(32.0467 23.355 0)
(33.1661 21.3497 0)
(33.9834 19.22 -3.4891e-15)
(34.4974 17.006 -5.26115e-15)
(34.6879 14.7282 4.70871e-15)
(34.5645 12.4464 0)
(34.1138 10.2026 3.91624e-15)
(33.3741 8.07563 -7.72498e-15)
(32.3962 6.12596 3.87193e-15)
(31.2891 4.42456 -1.16508e-16)
(30.2435 3.0263 0)
(29.3425 1.88786 1.56032e-15)
(28.4977 0.928531 2.42282e-17)
(27.6147 0.109135 -6.8956e-16)
(26.6547 -0.592438 -2.52379e-15)
(25.6122 -1.19056 -9.17798e-15)
(24.4905 -1.69185 4.0939e-15)
(23.2927 -2.09962 7.46876e-15)
(22.0177 -2.41512 6.44743e-15)
(20.6556 -2.63922 2.20616e-14)
(19.1549 -2.76756 -8.92964e-15)
(17.4782 -2.79924 -6.34918e-17)
(15.3124 -2.67969 1.93002e-17)
(12.8402 -2.40159 2.62645e-15)
(7.27951 -1.99788 1.42837e-14)
(0.157331 19.9288 -1.21346e-17)
(-0.617228 17.2754 -3.87172e-17)
(-1.03115 14.3119 1.16674e-16)
(-0.96781 10.9459 -3.0451e-16)
(-0.297204 7.53056 -1.01813e-15)
(0.90974 4.33092 1.86124e-15)
(2.45788 1.55008 7.76549e-15)
(4.28491 -1.00487 1.73305e-15)
(6.43889 -3.20293 0)
(8.70478 -4.8364 0)
(10.8657 -5.88825 1.26067e-15)
(12.8184 -6.47201 4.74517e-16)
(14.5376 -6.71405 -8.18896e-16)
(16.023 -6.71814 6.79447e-16)
(17.3 -6.57632 1.12936e-15)
(18.4108 -6.34721 7.28866e-16)
(19.3902 -6.07197 9.06317e-16)
(20.2705 -5.77314 5.90997e-16)
(21.0826 -5.46611 0)
(21.8484 -5.14962 0)
(22.5856 -4.82184 -7.21347e-16)
(23.304 -4.46876 -2.78816e-17)
(24.0028 -4.07175 3.72127e-16)
(24.6472 -3.59674 -1.75538e-16)
(25.1658 -3.03822 2.56873e-17)
(25.541 -2.43624 0)
(25.8032 -1.81796 -6.63922e-17)
(25.9695 -1.1982 0)
(26.0517 -0.588493 0)
(26.017 0.00355358 -1.1794e-16)
(25.8707 0.570324 0)
(25.6325 1.10383 4.90555e-16)
(25.3204 1.59652 8.28125e-16)
(24.9481 2.04195 3.51751e-15)
(24.5112 2.43629 -9.98836e-16)
(24.0048 2.78167 3.1278e-18)
(23.3104 3.07452 0)
(22.3974 3.28603 2.16351e-15)
(19.7103 3.49155 5.742e-15)
(6.55945 19.3904 -1.88372e-17)
(8.08037 21.1433 1.28406e-17)
(9.98707 22.794 0)
(12.227 24.2349 0)
(14.6928 25.3954 -7.25889e-17)
(17.3852 26.2163 -2.00741e-16)
(20.2 26.646 0)
(23.0188 26.6903 0)
(25.7843 26.3519 5.07985e-16)
(28.4111 25.6692 0)
(30.8433 24.691 2.0184e-15)
(33.0488 23.4614 0)
(35.0032 22.0284 7.6087e-16)
(36.6899 20.4299 -7.50108e-16)
(38.1191 18.7218 1.54749e-15)
(39.3048 16.9527 -3.14997e-15)
(40.238 15.1481 3.40545e-15)
(40.902 13.3315 3.12993e-15)
(41.2905 11.508 3.07803e-15)
(41.3769 9.70232 1.88029e-16)
(41.1523 7.9352 -3.23079e-15)
(40.5969 6.25395 3.07202e-15)
(39.7253 4.69464 -1.72779e-16)
(38.5627 3.30964 0)
(37.2054 2.14641 0)
(35.7909 1.15727 0)
(34.3764 0.27234 1.31555e-16)
(32.9573 -0.515211 -2.94429e-17)
(31.5384 -1.20416 1.85395e-15)
(30.1193 -1.79667 3.54327e-17)
(28.6893 -2.29207 -2.77302e-17)
(27.2346 -2.69071 -8.04187e-17)
(25.7397 -2.99424 4.41503e-15)
(24.1893 -3.20537 -7.39418e-15)
(22.54 -3.32409 -3.98172e-17)
(20.7693 -3.35178 -8.45731e-15)
(18.6022 -3.2431 0)
(16.2955 -3.00786 -7.33418e-16)
(10.7236 -2.28086 7.56029e-15)
(5.33087 17.5554 2.62027e-17)
(4.3197 15.5513 -8.01389e-17)
(3.53331 13.2309 -8.6409e-16)
(3.06196 10.6366 1.08978e-15)
(3.08559 7.8915 0)
(3.64585 5.17419 -2.14096e-15)
(4.66222 2.61369 -1.20122e-15)
(6.04054 0.292159 -5.81327e-15)
(7.72359 -1.62654 1.56192e-15)
(9.58787 -3.0518 -1.19449e-15)
(11.4762 -4.00619 1.56598e-15)
(13.2733 -4.57695 -4.52636e-16)
(14.9245 -4.85825 0)
(16.4042 -4.93255 -2.92548e-16)
(17.7103 -4.88215 6.12618e-17)
(18.8653 -4.75358 -6.30567e-16)
(19.8924 -4.58357 0)
(20.818 -4.38954 0)
(21.6678 -4.18404 -6.16057e-17)
(22.4663 -3.95869 5.95923e-17)
(23.2294 -3.70721 -6.55657e-16)
(23.9693 -3.40812 -6.44663e-17)
(24.6862 -3.0378 2.66675e-17)
(25.3533 -2.55632 2.13878e-16)
(25.9124 -1.97899 -5.7723e-17)
(26.3391 -1.37855 1.07916e-18)
(26.6526 -0.784293 0)
(26.8684 -0.205146 0)
(26.9852 0.354012 0)
(27.033 0.884801 9.14284e-18)
(27.0128 1.38219 0)
(26.9152 1.84212 0)
(26.7334 2.26124 -1.35291e-15)
(26.4679 2.63705 -1.13501e-15)
(26.1167 2.9714 8.10428e-16)
(25.697 3.27218 -3.66307e-16)
(25.1049 3.54223 -2.30517e-16)
(24.564 3.79145 -1.73442e-15)
(22.4583 3.87641 -3.96327e-15)
(8.47122 17.9223 -4.86709e-18)
(9.5776 19.4497 -5.00287e-17)
(10.9585 20.9649 3.53554e-17)
(12.5809 22.3858 2.48254e-18)
(14.4081 23.6072 -8.20025e-17)
(16.4406 24.6061 3.3668e-16)
(18.6133 25.335 -2.48726e-16)
(20.8592 25.7536 -3.4134e-16)
(23.1268 25.8549 1.16494e-17)
(25.3589 25.6432 -4.87433e-16)
(27.5036 25.1331 4.8042e-16)
(29.5262 24.3499 -1.27559e-15)
(31.3959 23.3241 -6.29973e-16)
(33.0923 22.0829 0)
(34.5973 20.6541 -1.54132e-15)
(35.8948 19.0691 3.16614e-15)
(36.9951 17.3386 0)
(37.8962 15.4932 -6.15547e-15)
(38.5921 13.5616 -3.10221e-15)
(39.0611 11.5966 3.65419e-16)
(39.2943 9.63773 -3.61721e-16)
(39.2753 7.75344 -1.65631e-16)
(39.0073 5.99366 -2.35704e-15)
(38.4971 4.41926 1.18719e-15)
(37.7874 3.07356 0)
(36.9431 1.90359 1.04373e-15)
(35.9765 0.844943 -1.23469e-16)
(34.8737 -0.101417 0)
(33.6444 -0.929524 1.64351e-15)
(32.3111 -1.63946 3.04674e-15)
(30.8928 -2.23051 -5.36047e-15)
(29.4032 -2.70439 -4.60078e-15)
(27.8471 -3.06571 -9.72828e-17)
(26.2208 -3.32012 -6.49554e-15)
(24.4879 -3.47057 -5.17839e-15)
(22.6287 -3.51775 7.33997e-15)
(20.3924 -3.42551 0)
(18.0337 -3.15819 -5.47655e-16)
(13.0067 -2.58026 -1.12867e-14)
(7.60064 16.3361 -2.72538e-17)
(6.8713 14.6312 -8.13247e-17)
(6.32187 12.6506 3.5254e-16)
(5.9552 10.4545 0)
(5.90548 8.14114 5.68759e-16)
(6.21235 5.80958 0)
(6.87708 3.55194 3.20048e-15)
(7.87724 1.47143 1.35431e-15)
(9.15356 -0.317871 1.15324e-15)
(10.6072 -1.76818 0)
(12.1291 -2.87395 -1.67298e-15)
(13.6306 -3.66265 -3.50697e-16)
(15.0593 -4.18369 1.60176e-15)
(16.3837 -4.4918 0)
(17.5908 -4.64113 -7.20565e-16)
(18.6868 -4.67336 -2.17475e-16)
(19.6848 -4.62291 8.72498e-16)
(20.6019 -4.51244 4.42938e-16)
(21.4568 -4.35788 1.15652e-16)
(22.2681 -4.16133 -6.54573e-17)
(23.0489 -3.92224 6.00151e-16)
(23.8078 -3.62871 0)
(24.5437 -3.26482 0)
(25.2341 -2.80725 2.65678e-17)
(25.832 -2.27165 0)
(26.3139 -1.71027 2.2794e-17)
(26.6926 -1.14148 7.13918e-19)
(26.9816 -0.570029 2.56804e-17)
(27.1836 -0.000903084 0)
(27.3005 0.558194 9.1854e-17)
(27.3363 1.0994 -1.77785e-16)
(27.2952 1.61238 0)
(27.1794 2.08777 6.57123e-16)
(26.9907 2.51817 0)
(26.7201 2.9022 0)
(26.3735 3.24395 3.82422e-17)
(25.8409 3.55122 -6.34779e-17)
(25.2663 3.7956 1.73693e-15)
(23.407 3.91018 7.7125e-15)
(10.7506 16.5137 -2.14453e-17)
(11.7578 17.8194 -2.67349e-17)
(13.0003 19.1226 3.13713e-17)
(14.4586 20.3441 1.92813e-17)
(16.1003 21.3991 0)
(17.933 22.2727 0)
(19.9076 22.9163 -4.34576e-16)
(21.971 23.2915 5.60565e-16)
(24.0803 23.3879 0)
(26.1832 23.2011 -7.78206e-16)
(28.2302 22.7392 -1.03099e-15)
(30.1825 22.0201 -9.96911e-16)
(32.0047 21.0679 1.21987e-15)
(33.6687 19.9086 1.16848e-15)
(35.1503 18.5703 0)
(36.4316 17.0837 1.90838e-15)
(37.496 15.4814 6.75398e-16)
(38.3195 13.8092 5.53214e-15)
(38.8899 12.0986 3.38394e-16)
(39.2066 10.3784 -3.3469e-16)
(39.2733 8.67905 2.85526e-15)
(39.1036 7.04328 -4.68895e-16)
(38.7257 5.51064 2.5671e-15)
(38.1781 4.12361 1.07588e-15)
(37.5187 2.91147 -6.40523e-17)
(36.8043 1.83953 -9.41382e-16)
(36.0389 0.857267 6.97405e-18)
(35.1911 -0.0389553 -7.00674e-18)
(34.24 -0.8437 -1.57618e-15)
(33.1766 -1.55444 -4.16569e-17)
(31.9942 -2.16526 2.62462e-15)
(30.691 -2.67094 -4.45524e-15)
(29.2667 -3.06922 -3.5825e-15)
(27.7215 -3.36013 -4.7927e-18)
(26.028 -3.54255 4.70297e-15)
(24.1738 -3.6121 0)
(21.9324 -3.53655 3.68151e-15)
(19.5125 -3.23388 4.67248e-16)
(14.8272 -2.7252 4.64377e-15)
(9.93793 15.1638 -3.62724e-17)
(9.2434 13.7232 1.18213e-16)
(8.69158 12.0432 4.53243e-16)
(8.29381 10.17 0)
(8.15798 8.19443 -4.8704e-16)
(8.31193 6.17501 0)
(8.75719 4.17838 -2.26572e-15)
(9.47964 2.30311 -6.94543e-17)
(10.4437 0.646445 8.98282e-16)
(11.5867 -0.748745 7.71042e-16)
(12.8312 -1.86085 2.04232e-17)
(14.1062 -2.69563 1.30651e-15)
(15.3625 -3.28534 -8.08214e-16)
(16.5648 -3.67073 2.60983e-16)
(17.6918 -3.89365 8.68903e-16)
(18.7379 -3.99317 9.37592e-16)
(19.7069 -4.00142 -8.20467e-16)
(20.6071 -3.94244 1.09709e-17)
(21.4512 -3.83284 0)
(22.2529 -3.6782 7.88797e-16)
(23.0231 -3.47811 3.52866e-17)
(23.7687 -3.22328 -5.26782e-16)
(24.4886 -2.89986 0)
(25.1644 -2.48913 2.56687e-17)
(25.7575 -1.99935 0)
(26.2445 -1.4717 -2.17064e-17)
(26.6333 -0.928236 0)
(26.9357 -0.378033 -2.42629e-17)
(27.1558 0.171308 1.46948e-18)
(27.295 0.710161 -1.06135e-18)
(27.3571 1.22772 1.62188e-16)
(27.3468 1.71458 4.916e-18)
(27.2677 2.1638 0)
(27.1236 2.57065 -4.49928e-16)
(26.9075 2.93579 -6.25981e-18)
(26.6231 3.26275 3.19275e-16)
(26.1675 3.56246 6.53664e-16)
(25.6425 3.77806 3.88257e-18)
(23.9955 3.90144 0)
(12.4039 15.4218 -2.80873e-17)
(13.2644 16.5742 -1.73651e-17)
(14.3278 17.7413 5.31025e-17)
(15.5682 18.853 -9.70943e-17)
(16.9575 19.8336 7.18775e-18)
(18.5158 20.6807 -7.70697e-17)
(20.2028 21.3498 1.76478e-16)
(21.9781 21.8041 0)
(23.8141 22.0309 8.46785e-16)
(25.6679 22.0181 4.26944e-16)
(27.5003 21.7629 0)
(29.2779 21.2716 9.50614e-16)
(30.9666 20.5565 -5.16704e-16)
(32.5372 19.6334 1.44092e-15)
(33.9643 18.5221 0)
(35.2254 17.2459 -2.48358e-15)
(36.3006 15.8293 2.4096e-15)
(37.1781 14.2895 -1.52033e-16)
(37.8463 12.6473 0)
(38.2889 10.9419 2.68785e-15)
(38.4941 9.2173 -2.72323e-15)
(38.4585 7.53027 -1.39868e-16)
(38.1959 5.93355 -2.13344e-15)
(37.7386 4.47841 -1.96467e-15)
(37.1444 3.20028 0)
(36.4772 2.07535 0)
(35.761 1.0569 -2.14413e-16)
(34.9862 0.134426 -2.40801e-17)
(34.1453 -0.690667 1.48747e-15)
(33.2345 -1.41931 -3.9456e-17)
(32.2432 -2.04989 3.94469e-17)
(31.1554 -2.58007 4.14754e-15)
(29.951 -3.00839 0)
(28.6096 -3.33349 1.14574e-14)
(27.0891 -3.5511 -3.93299e-17)
(25.3684 -3.65092 0)
(23.2339 -3.6005 -3.06383e-17)
(20.8534 -3.28376 0)
(16.4175 -2.78218 -3.96065e-15)
(11.7013 14.2358 4.22078e-17)
(11.0953 12.9812 -2.37636e-16)
(10.5933 11.516 2.49255e-16)
(10.205 9.88141 3.58649e-16)
(10.0238 8.16168 -1.49678e-15)
(10.0729 6.38612 -1.72739e-15)
(10.3652 4.60669 1.70893e-15)
(10.8925 2.91629 -1.59795e-15)
(11.6297 1.39556 -7.02406e-16)
(12.5349 0.0771054 -6.16896e-16)
(13.5506 -1.01659 1.18927e-15)
(14.6213 -1.88116 -1.11951e-15)
(15.7065 -2.53573 -4.79425e-16)
(16.7739 -3.00752 4.69207e-16)
(17.8003 -3.32421 -9.84581e-16)
(18.7748 -3.516 1.86695e-16)
(19.6946 -3.60832 0)
(20.5621 -3.62156 -6.43801e-16)
(21.3844 -3.57047 2.2328e-16)
(22.1704 -3.46245 -8.32828e-16)
(22.928 -3.29875 0)
(23.6619 -3.07381 4.57574e-16)
(24.3701 -2.77761 3.35288e-16)
(25.0364 -2.39753 -2.01797e-16)
(25.6283 -1.93998 0)
(26.1225 -1.43902 -6.33432e-17)
(26.5221 -0.917935 0)
(26.8365 -0.38639 0)
(27.0697 0.148074 0)
(27.2233 0.675805 -5.90738e-17)
(27.3005 1.18693 0)
(27.3063 1.67201 0)
(27.2444 2.12263 4.82208e-16)
(27.1194 2.53257 4.26494e-16)
(26.9256 2.90147 0)
(26.6681 3.23124 2.24681e-16)
(26.2534 3.5332 6.79421e-17)
(25.7737 3.73685 0)
(24.332 3.85625 -3.40309e-15)
(13.8505 14.4783 3.66332e-17)
(14.6248 15.4996 -2.62439e-17)
(15.579 16.5407 0)
(16.6868 17.5365 1.13913e-17)
(17.9208 18.4192 1.73316e-17)
(19.3078 19.1931 7.2035e-17)
(20.813 19.8168 3.95464e-17)
(22.404 20.2574 -4.67777e-16)
(24.0622 20.5011 -6.91696e-17)
(25.7524 20.5336 8.43949e-16)
(27.4417 20.3477 -3.05487e-16)
(29.101 19.9437 7.25471e-16)
(30.6976 19.3276 3.66931e-16)
(32.2022 18.5097 2.6849e-16)
(33.5878 17.505 0)
(34.8288 16.3329 -5.39993e-16)
(35.903 15.0151 -1.20171e-15)
(36.7901 13.5792 -4.57042e-15)
(37.4674 12.0622 1.35791e-15)
(37.9213 10.4975 -1.73148e-15)
(38.1442 8.91969 -2.71194e-16)
(38.137 7.36917 0)
(37.9127 5.88773 1.90429e-15)
(37.4995 4.51631 1.21348e-16)
(36.945 3.28614 -5.45031e-17)
(36.3031 2.18604 -7.59983e-16)
(35.5999 1.18235 1.75633e-16)
(34.8342 0.267244 3.67973e-16)
(34.0067 -0.554903 -1.37814e-15)
(33.1236 -1.28318 -7.35611e-17)
(32.1864 -1.9169 2.34555e-15)
(31.1902 -2.45522 3.80304e-15)
(30.1205 -2.89835 0)
(28.9537 -3.2458 -1.43e-17)
(27.6364 -3.49266 -4.20866e-15)
(26.1293 -3.62447 0)
(24.209 -3.60622 -6.3786e-15)
(22.0047 -3.29506 0)
(17.841 -2.8008 3.54256e-15)
(13.2111 13.4297 -4.12326e-17)
(12.6556 12.3271 9.51873e-17)
(12.1815 11.0355 0)
(11.7983 9.5915 0)
(11.5876 8.07481 6.29361e-16)
(11.5659 6.49618 2.72482e-15)
(11.7503 4.89764 0)
(12.136 3.36689 -1.20473e-15)
(12.7037 1.97186 -1.14053e-15)
(13.4249 0.737472 1.12874e-15)
(14.2567 -0.314947 -4.17773e-17)
(15.1558 -1.17532 4.8267e-16)
(16.0905 -1.8548 3.27683e-17)
(17.0332 -2.3716 1.22318e-15)
(17.9616 -2.74381 1.07041e-15)
(18.8624 -2.99399 -9.88165e-16)
(19.7289 -3.14233 1.34575e-16)
(20.5589 -3.20633 -2.47684e-16)
(21.3544 -3.19945 1.13284e-16)
(22.1203 -3.12988 6.31675e-16)
(22.8612 -3.00026 7.95132e-17)
(23.5795 -2.80747 -5.06587e-17)
(24.2725 -2.54366 -2.81891e-16)
(24.9259 -2.19952 0)
(25.5117 -1.77969 6.88866e-18)
(26.0078 -1.31162 1.32265e-16)
(26.4134 -0.817983 2.38815e-19)
(26.7354 -0.309536 -2.37118e-19)
(26.9774 0.205205 0)
(27.1409 0.71592 5.55758e-17)
(27.2287 1.21199 0)
(27.2455 1.68337 0)
(27.1949 2.12199 -4.46375e-16)
(27.0808 2.52209 -3.52059e-16)
(26.8979 2.88341 0)
(26.651 3.20632 -2.09729e-16)
(26.2538 3.50172 -8.4113e-16)
(25.7915 3.68762 7.65685e-18)
(24.5056 3.7881 3.12328e-15)
(15.063 13.6721 3.32134e-18)
(15.7615 14.5875 -2.34321e-17)
(16.6206 15.5269 4.19993e-17)
(17.6131 16.4291 -4.07516e-17)
(18.7107 17.2337 -3.33037e-18)
(19.9449 17.95 0)
(21.284 18.5413 -1.83929e-16)
(22.7011 18.978 -8.79807e-18)
(24.1852 19.2482 -2.4353e-16)
(25.7066 19.3372 -5.05383e-16)
(27.2394 19.2353 0)
(28.7601 18.9389 -1.31156e-15)
(30.2394 18.4487 -1.15874e-15)
(31.6503 17.7694 -2.86639e-15)
(32.9669 16.9105 0)
(34.163 15.886 -1.81427e-15)
(35.2148 14.7138 -1.9239e-15)
(36.1007 13.4161 2.14512e-15)
(36.8029 12.0134 -2.1322e-15)
(37.3045 10.5357 1.98233e-15)
(37.5932 9.01951 2.44962e-16)
(37.664 7.50982 -2.10881e-15)
(37.5241 6.05322 0)
(37.1949 4.6934 -1.8171e-15)
(36.7155 3.46211 1.06538e-16)
(36.132 2.35481 7.93189e-16)
(35.4709 1.34485 0)
(34.7355 0.424147 -2.71925e-17)
(33.9282 -0.40345 5.82598e-17)
(33.0574 -1.1369 2.2382e-15)
(32.13 -1.77588 -2.06956e-15)
(31.1501 -2.3201 -3.58462e-15)
(30.1161 -2.77075 3.02692e-15)
(29.0198 -3.12902 -5.33359e-17)
(27.8221 -3.39172 3.98181e-15)
(26.4926 -3.54501 5.46793e-15)
(24.8113 -3.55445 3.05236e-15)
(22.8886 -3.258 -7.60145e-18)
(19.0869 -2.78879 -4.52917e-18)
(14.4806 12.7338 1.63935e-17)
(13.9709 11.7525 1.74134e-16)
(13.5241 10.6003 2.169e-16)
(13.1496 9.31006 -4.33232e-16)
(12.9209 7.95705 -1.62776e-15)
(12.8503 6.5398 4.691e-16)
(12.9564 5.0941 1.01666e-15)
(13.2372 3.70213 2.525e-15)
(13.6772 2.42193 9.93953e-16)
(14.2557 1.27202 -9.28107e-16)
(14.9398 0.271611 -2.00098e-17)
(15.6954 -0.567594 -4.27487e-16)
(16.4979 -1.25283 0)
(17.325 -1.79629 -1.64156e-17)
(18.1569 -2.20935 -6.68412e-16)
(18.9806 -2.50816 2.84597e-16)
(19.7876 -2.70767 -2.79706e-16)
(20.5725 -2.82138 0)
(21.3341 -2.86022 4.00622e-16)
(22.0738 -2.83159 -6.69252e-16)
(22.7934 -2.73826 0)
(23.4932 -2.57844 4.5064e-16)
(24.1695 -2.34638 0)
(24.8092 -2.03567 -1.26547e-17)
(25.3881 -1.65041 1.25456e-17)
(25.885 -1.21318 -7.3453e-17)
(26.2958 -0.745626 -1.71479e-18)
(26.6253 -0.2597 -3.67663e-20)
(26.8762 0.235321 -5.62667e-19)
(27.0497 0.729009 3.99675e-17)
(27.1481 1.21086 9.44484e-17)
(27.1757 1.67148 -1.89493e-16)
(27.1355 2.10273 -6.12296e-18)
(27.031 2.49841 2.68535e-17)
(26.8566 2.85727 0)
(26.6167 3.1773 5.5951e-19)
(26.2305 3.46773 4.11585e-16)
(25.7763 3.63711 -1.03745e-17)
(24.6032 3.71302 2.88426e-15)
(16.1117 12.9646 6.36003e-18)
(16.7512 13.7904 3.61677e-17)
(17.5362 14.6414 0)
(18.4391 15.4599 -2.01892e-17)
(19.4309 16.1915 -3.38264e-17)
(20.5454 16.8487 0)
(21.7534 17.3983 -6.97154e-17)
(23.0318 17.814 6.10171e-16)
(24.3745 18.0857 -9.21583e-16)
(25.7571 18.1989 2.91845e-16)
(27.1582 18.1432 4.35962e-16)
(28.5594 17.9128 1.66031e-15)
(29.9354 17.5048 1.21787e-15)
(31.2617 16.9198 1.48113e-15)
(32.5137 16.1632 4.00281e-16)
(33.6658 15.2446 1.3333e-15)
(34.6932 14.1781 1.84277e-15)
(35.5735 12.9822 1.81255e-15)
(36.2848 11.6818 -1.36174e-15)
(36.8081 10.307 -4.18757e-15)
(37.1302 8.89081 0)
(37.246 7.47137 7.77952e-17)
(37.1611 6.08946 1.64478e-15)
(36.8939 4.784 1.72719e-15)
(36.4766 3.58474 -9.80147e-17)
(35.948 2.49372 -7.14378e-16)
(35.3331 1.49296 5.12598e-18)
(34.6376 0.576423 -3.62788e-16)
(33.864 -0.251369 3.81164e-17)
(33.0191 -0.988045 -4.17595e-15)
(32.1095 -1.6324 -7.18706e-18)
(31.1399 -2.18317 -5.60242e-17)
(30.1131 -2.6405 -2.88309e-15)
(29.03 -3.00527 -5.34025e-17)
(27.8681 -3.275 -3.67741e-15)
(26.6216 -3.43702 -1.03185e-14)
(25.1053 -3.4612 2.84524e-15)
(23.47 -3.17577 3.75065e-16)
(20.116 -2.74172 2.83915e-15)
(15.5736 12.1192 -6.57697e-17)
(15.1003 11.2383 -2.33793e-16)
(14.6767 10.202 -1.59252e-16)
(14.3115 9.03972 -3.98715e-16)
(14.0716 7.82132 8.91014e-16)
(13.9671 6.53873 -5.92675e-17)
(14.0154 5.22391 -2.56063e-15)
(14.2172 3.95261 -8.65749e-16)
(14.5594 2.77549 2.24253e-17)
(15.0262 1.70637 0)
(15.5916 0.762465 -7.89884e-16)
(16.228 -0.04457 7.26638e-16)
(16.9166 -0.720144 -6.89517e-16)
(17.6398 -1.27281 -3.48248e-16)
(18.3811 -1.70942 2.83432e-16)
(19.1289 -2.04135 2.8232e-16)
(19.8742 -2.279 9.82457e-16)
(20.6104 -2.43216 -2.30042e-16)
(21.3339 -2.50923 -3.75969e-16)
(22.0435 -2.51645 0)
(22.7384 -2.45637 -5.39163e-16)
(23.4171 -2.32808 -3.7644e-16)
(24.0748 -2.12733 -1.08422e-17)
(24.6993 -1.84992 -3.62586e-17)
(25.2693 -1.49964 -8.37905e-18)
(25.7644 -1.09479 1.14299e-16)
(26.1784 -0.655538 -5.71173e-19)
(26.5137 -0.194438 9.05087e-19)
(26.7722 0.278839 -2.65374e-18)
(26.9546 0.753967 -3.71208e-17)
(27.0627 1.2206 -1.1397e-17)
(27.1002 1.66936 3.60145e-16)
(27.0696 2.09198 3.04611e-16)
(26.9741 2.48186 2.86207e-16)
(26.8078 2.83674 5.35268e-18)
(26.5746 3.15224 -1.79821e-18)
(26.1988 3.43531 -5.1554e-16)
(25.7534 3.58742 -1.50376e-15)
(24.6724 3.63734 -2.65694e-15)
(17.0225 12.3377 -1.97162e-17)
(17.6127 13.0872 -1.5402e-17)
(18.3354 13.8619 -6.92866e-17)
(19.1628 14.6081 2.05199e-16)
(20.0661 15.2754 -4.85641e-17)
(21.0792 15.8793 -3.79219e-17)
(22.1755 16.3894 2.34148e-16)
(23.334 16.7825 0)
(24.5525 17.0509 2.79572e-16)
(25.8099 17.1808 1.71632e-17)
(27.0892 17.1619 -3.72094e-16)
(28.3765 16.9876 -1.53166e-15)
(29.6498 16.653 -6.4174e-16)
(30.8878 16.156 0)
(32.0684 15.4984 0)
(33.1671 14.686 0)
(34.1598 13.7294 0)
(35.023 12.6441 -1.73775e-15)
(35.7359 11.4493 1.78337e-15)
(36.2789 10.1696 1.75244e-15)
(36.6363 8.83569 -1.41362e-15)
(36.8006 7.4848 1.24398e-15)
(36.7735 6.15698 -1.28505e-15)
(36.5692 4.89079 -9.39355e-17)
(36.2141 3.71549 -4.29653e-17)
(35.7409 2.63708 7.21918e-16)
(35.1737 1.64371 1.55383e-16)
(34.5207 0.730843 0)
(33.7855 -0.0970946 0)
(32.9745 -0.836908 3.43596e-17)
(32.0931 -1.48681 0)
(31.1452 -2.04461 3.07252e-15)
(30.1326 -2.5093 -2.71131e-15)
(29.0573 -2.88039 -4.33663e-15)
(27.9026 -3.15467 6.80591e-15)
(26.678 -3.31876 4.86967e-15)
(25.2321 -3.34635 -2.68917e-15)
(23.7946 -3.05973 -7.18171e-16)
(20.9041 -2.65601 -2.68228e-15)
(16.5223 11.571 0)
(16.0801 10.7746 6.61951e-17)
(15.6772 9.83571 3.04454e-16)
(15.3222 8.78141 -1.28672e-15)
(15.0759 7.67594 1.06937e-15)
(14.9475 6.5077 -7.56112e-16)
(14.9528 5.30571 1.73059e-17)
(15.0941 4.13964 6.88674e-16)
(15.3606 3.05489 7.10615e-16)
(15.7394 2.06177 0)
(16.2089 1.17518 3.28348e-16)
(16.7465 0.406206 -9.97574e-16)
(17.3378 -0.249933 1.54986e-15)
(17.9689 -0.7998 2.76357e-16)
(18.6265 -1.24772 -5.55494e-16)
(19.3011 -1.60148 -5.0804e-16)
(19.9844 -1.86798 -4.57931e-16)
(20.6693 -2.05378 0)
(21.3512 -2.16466 0)
(22.0268 -2.20514 0)
(22.6937 -2.17717 5.08463e-16)
(23.3485 -2.08006 0)
(23.9858 -1.9106 -2.98693e-16)
(24.5938 -1.66616 -3.60572e-17)
(25.1532 -1.35018 -1.81194e-16)
(25.6448 -0.977657 -1.00715e-16)
(26.0605 -0.566873 0)
(26.4005 -0.130646 -3.21143e-19)
(26.6657 0.321078 2.74072e-18)
(26.8562 0.777967 -6.16452e-19)
(26.9735 1.22969 -1.39377e-16)
(27.0204 1.66693 -1.92431e-17)
(26.9993 2.08123 -2.974e-16)
(26.9126 2.46542 2.16333e-16)
(26.7544 2.81609 0)
(26.528 3.12643 -1.51579e-18)
(26.1632 3.40088 -5.55965e-17)
(25.7283 3.53579 1.43485e-15)
(24.7316 3.55989 -1.44245e-17)
(17.8223 11.7757 2.03734e-17)
(18.3708 12.459 0)
(19.0411 13.167 1.35487e-16)
(19.8053 13.8491 -1.08118e-16)
(20.6346 14.4585 1.48279e-17)
(21.5629 15.0127 3.5425e-17)
(22.565 15.4838 -1.01911e-16)
(23.6219 15.8516 -1.51117e-16)
(24.7337 16.1097 0)
(25.8823 16.2457 -3.21076e-16)
(27.0542 16.2501 -3.58103e-16)
(28.2385 16.116 3.54067e-16)
(29.4168 15.8373 1.37336e-15)
(30.5713 15.41 5.68636e-16)
(31.6819 14.8332 -1.7295e-15)
(32.7259 14.1098 -1.26627e-15)
(33.6805 13.2471 1.0064e-15)
(34.5224 12.2571 7.51202e-16)
(35.2306 11.1567 -3.87951e-16)
(35.7842 9.96895 3.91491e-16)
(36.1664 8.72197 9.9458e-16)
(36.3681 7.44907 1.84817e-16)
(36.3888 6.18667 -1.74899e-16)
(36.2391 4.97067 -1.16332e-15)
(35.9403 3.82892 0)
(35.5193 2.77032 -6.10791e-16)
(34.9981 1.78895 -2.91654e-16)
(34.3867 0.882729 -2.68893e-16)
(33.6899 0.0566585 -9.93218e-16)
(32.9139 -0.684992 3.7083e-15)
(32.0643 -1.33948 1.52093e-15)
(31.1443 -1.90371 4.49578e-18)
(30.1548 -2.37549 3.41639e-17)
(29.0968 -2.75296 0)
(27.9533 -3.03166 -3.19622e-15)
(26.7371 -3.19625 0)
(25.3126 -3.22292 0)
(23.9625 -2.92565 3.43084e-16)
(21.4702 -2.53735 6.12875e-18)
(17.3542 11.0768 -6.71785e-17)
(16.9387 10.3525 2.14692e-16)
(16.5542 9.49708 1.57308e-17)
(16.2096 8.5353 2.8964e-16)
(15.9606 7.52631 -9.36641e-16)
(15.8153 6.45649 6.12122e-16)
(15.7883 5.35251 1.74429e-17)
(15.8828 4.27903 -5.79111e-16)
(16.09 3.27696 -5.58196e-16)
(16.3987 2.35408 -5.86833e-16)
(16.7905 1.52348 -1.13674e-15)
(17.2463 0.795368 0)
(17.7548 0.164835 -5.65405e-16)
(18.3051 -0.373695 -1.83909e-17)
(18.8868 -0.822911 0)
(19.4924 -1.1885 -4.55186e-16)
(20.115 -1.47461 -2.15529e-16)
(20.7479 -1.6853 -1.98528e-16)
(21.386 -1.8241 6.64667e-16)
(22.025 -1.89374 5.78034e-16)
(22.6612 -1.89513 -5.66366e-17)
(23.29 -1.82756 4.17449e-16)
(23.9051 -1.68848 7.0886e-17)
(24.4952 -1.47607 -3.56663e-17)
(25.0425 -1.19355 1.62627e-16)
(25.5287 -0.85318 9.36485e-18)
(25.9442 -0.47116 0)
(26.2875 -0.0602102 0)
(26.5583 0.369481 3.95865e-19)
(26.7563 0.807584 -1.86685e-18)
(26.8821 1.24374 1.13606e-16)
(26.938 1.66854 -1.89632e-17)
(26.926 2.07333 -2.30262e-16)
(26.8479 2.45041 -2.08021e-16)
(26.6979 2.7953 -2.15246e-18)
(26.4789 3.09899 4.03129e-18)
(26.1256 3.36338 1.09138e-15)
(25.7028 3.48117 -1.41001e-15)
(24.7863 3.48038 1.35397e-17)
(18.5294 11.2675 7.94734e-18)
(19.0419 11.8929 0)
(19.6671 12.5419 -6.87104e-17)
(20.377 13.167 0)
(21.1429 13.725 2.50245e-18)
(21.9984 14.2338 -2.4155e-18)
(22.9194 14.6683 7.61199e-17)
(23.8884 15.0104 1.42035e-16)
(24.9071 15.2553 0)
(25.9596 15.3921 -2.00981e-16)
(27.0349 15.4121 3.64715e-16)
(28.1253 15.3087 -7.60712e-16)
(29.215 15.0753 -4.31782e-16)
(30.2889 14.7069 -4.48167e-16)
(31.3299 14.2008 1.10301e-15)
(32.3172 13.5576 1.20815e-15)
(33.2296 12.7817 -1.30776e-15)
(34.0446 11.8821 -1.31146e-15)
(34.7415 10.8733 0)
(35.2997 9.77376 3.59202e-16)
(35.7015 8.60877 -6.95258e-16)
(35.9359 7.40894 1.70336e-16)
(36.0001 6.20836 3.03911e-18)
(35.901 5.04109 2.74724e-15)
(35.6553 3.93376 -1.50361e-16)
(35.2849 2.89705 9.1191e-17)
(34.8092 1.92963 2.70409e-16)
(34.239 1.03183 2.86158e-16)
(33.5802 0.209259 8.57153e-16)
(32.8392 -0.532744 -1.71205e-15)
(32.0215 -1.19046 -1.39837e-15)
(31.1309 -1.75989 -5.45364e-15)
(30.1682 -2.23776 4.66085e-15)
(29.1338 -2.62089 -6.55905e-17)
(28.0103 -2.90374 2.97771e-15)
(26.8093 -3.06865 -9.09115e-17)
(25.4012 -3.09404 4.99112e-17)
(24.0696 -2.78414 5.63416e-18)
(21.8712 -2.39467 -2.07692e-15)
(18.0893 10.6277 3.45472e-17)
(17.6973 9.96568 -1.08458e-16)
(17.3296 9.18259 2.07458e-16)
(16.9953 8.30088 0)
(16.7462 7.37561 5.35414e-16)
(16.5891 6.39144 0)
(16.5375 5.37362 0)
(16.5957 4.382 0)
(16.756 3.45411 1.03686e-15)
(17.0083 2.59579 -5.00341e-16)
(17.3368 1.81872 5.6486e-16)
(17.7247 1.13221 0)
(18.1629 0.53096 0)
(18.6429 0.00963681 -4.83774e-16)
(19.1565 -0.433587 0)
(19.6982 -0.802979 4.25868e-16)
(20.2625 -1.10117 7.99278e-18)
(20.8438 -1.33012 0)
(21.437 -1.4914 -4.78141e-16)
(22.0376 -1.5862 -6.90309e-16)
(22.6408 -1.61442 -4.6751e-16)
(23.2415 -1.57488 -3.85894e-16)
(23.8328 -1.4651 6.29381e-16)
(24.4037 -1.28372 0)
(24.9374 -1.03366 1.78972e-16)
(25.4162 -0.72486 1.4176e-16)
(25.83 -0.37156 4.1218e-17)
(26.1753 0.0139045 0)
(26.4508 0.421213 -3.75498e-19)
(26.6554 0.840039 1.01215e-17)
(26.7891 1.26 -8.67023e-17)
(26.8536 1.67158 -1.86173e-17)
(26.8505 2.06593 2.12462e-16)
(26.7811 2.43484 -1.41719e-16)
(26.6396 2.77284 -2.58385e-18)
(26.4283 3.06894 -1.41436e-18)
(26.0876 3.32243 -1.13857e-15)
(25.6778 3.42427 1.32248e-15)
(24.8378 3.40021 4.1794e-15)
(19.1585 10.8044 4.87107e-18)
(19.6396 11.3788 -2.41578e-17)
(20.2254 11.9755 0)
(20.8881 12.5495 -7.03285e-17)
(21.5992 13.061 0)
(22.3917 13.5282 0)
(23.2424 13.9282 2.08657e-17)
(24.135 14.2449 1.32114e-16)
(25.0722 14.4747 3.18489e-16)
(26.0398 14.6079 8.67945e-16)
(27.0291 14.6373 5.13896e-16)
(28.0342 14.5564 6.12665e-16)
(29.0422 14.3587 0)
(30.0405 14.0386 1.24977e-15)
(31.0143 13.5922 -4.44669e-16)
(31.9451 13.0183 0)
(32.8135 12.3192 1.08941e-15)
(33.5984 11.5012 1.25391e-15)
(34.2793 10.576 0)
(34.8366 9.55943 1.27128e-15)
(35.2516 8.47416 -1.24643e-15)
(35.512 7.34749 0)
(35.6131 6.21051 -1.48644e-16)
(35.5591 5.09484 2.80082e-17)
(35.3622 4.02566 7.07226e-17)
(35.0399 3.01474 1.06224e-15)
(34.6086 2.06438 -3.6541e-18)
(34.0795 1.17752 -2.82888e-17)
(33.4586 0.36067 -2.37819e-17)
(32.7526 -0.37984 5.18724e-17)
(31.967 -1.03916 1.40772e-15)
(31.1061 -1.61235 4.93119e-15)
(30.1709 -2.09509 3.89452e-17)
(29.1623 -2.48289 -3.51581e-15)
(28.0636 -2.76929 -2.70329e-15)
(26.8855 -2.93424 -3.91318e-15)
(25.505 -2.95857 -2.19296e-15)
(24.1725 -2.64016 1.42724e-17)
(22.1737 -2.23828 1.9232e-15)
(18.7431 10.2167 -7.32203e-17)
(18.372 9.6093 -2.55723e-16)
(18.0198 8.88954 4.9547e-16)
(17.6958 8.0779 0)
(17.4483 7.2258 8.48228e-16)
(17.2832 6.31724 0)
(17.213 5.37564 -4.17882e-16)
(17.2427 4.45692 1.66662e-15)
(17.3656 3.59574 -1.27281e-15)
(17.5724 2.79675 0)
(17.8489 2.0702 9.13909e-16)
(18.1804 1.42459 8.70564e-16)
(18.559 0.8543 0)
(18.978 0.354079 -8.34731e-16)
(19.431 -0.0776496 1.97524e-16)
(19.9142 -0.444641 -1.97624e-16)
(20.4237 -0.748409 1.88521e-16)
(20.9547 -0.989542 3.24153e-16)
(21.503 -1.16813 -1.49474e-17)
(22.064 -1.28395 3.74917e-16)
(22.6328 -1.33585 1.0214e-16)
(23.2036 -1.32206 -1.0143e-16)
(23.7696 -1.24 -3.02216e-16)
(24.32 -1.08833 2.47186e-16)
(24.8386 -0.869479 -1.59282e-16)
(25.3085 -0.591586 -1.45541e-16)
(25.7188 -0.266948 -3.92705e-17)
(26.0647 0.0927308 -2.2639e-19)
(26.3437 0.477139 5.85723e-19)
(26.5541 0.876049 -9.69101e-18)
(26.6952 1.27906 1.01213e-17)
(26.768 1.67654 -1.82067e-17)
(26.7737 2.05946 -1.48857e-16)
(26.7129 2.4191 1.4585e-16)
(26.5801 2.74916 -8.08265e-19)
(26.3771 3.03689 -6.16142e-17)
(26.0496 3.27915 5.73015e-16)
(25.6539 3.36653 0)
(24.8867 3.32097 -4.01454e-15)
(19.7214 10.3799 1.28429e-17)
(20.1747 10.9089 0)
(20.7256 11.4586 0)
(21.3467 11.9868 1.0967e-16)
(22.0097 12.4564 -2.01517e-17)
(22.7468 12.8855 0)
(23.5359 13.2533 0)
(24.3614 13.5454 -4.05283e-16)
(25.2267 13.7593 -2.15883e-17)
(26.1191 13.8866 -2.84609e-17)
(27.0312 13.9208 -1.19243e-15)
(27.9592 13.8563 -3.24425e-16)
(28.8919 13.6869 6.26947e-16)
(29.8192 13.4068 -5.4145e-17)
(30.7286 13.0114 0)
(31.6037 12.4983 0)
(32.4271 11.868 -2.98414e-15)
(33.1792 11.1245 -5.5568e-16)
(33.8403 10.2772 5.68609e-16)
(34.3916 9.33898 -1.23231e-15)
(34.8146 8.32958 2.34715e-15)
(35.0956 7.27344 1.11402e-15)
(35.2283 6.1989 -1.07999e-15)
(35.2142 5.13531 -1.22069e-15)
(35.0621 4.1063 1.93353e-16)
(34.7852 3.12401 -1.04544e-15)
(34.3972 2.19345 -1.17957e-16)
(33.9086 1.31995 2.62875e-17)
(33.3258 0.511002 -2.61896e-17)
(32.6552 -0.226017 8.77747e-17)
(31.9023 -0.885218 -3.632e-17)
(31.0714 -1.46073 -2.4342e-15)
(30.1642 -1.94712 -9.10363e-17)
(29.1821 -2.33865 1.07273e-16)
(28.1098 -2.62787 0)
(26.9581 -2.79255 3.63494e-15)
(25.6149 -2.81548 2.05278e-15)
(24.2899 -2.49439 0)
(22.4301 -2.07536 0)
(19.3281 9.83838 0)
(18.9756 9.27925 2.2695e-16)
(18.638 8.61564 -7.33186e-16)
(18.3241 7.86578 -3.43132e-16)
(18.0797 7.07838 -7.69907e-16)
(17.9092 6.23702 0)
(17.825 5.3634 0)
(17.8323 4.51004 -7.49372e-16)
(17.9251 3.7092 7.711e-16)
(18.0948 2.96452 0)
(18.3285 2.28516 -3.85915e-16)
(18.6128 1.67906 -4.10076e-16)
(18.9408 1.14038 3.82616e-16)
(19.3072 0.663543 3.90538e-16)
(19.7067 0.246925 -7.21143e-16)
(20.137 -0.112872 0)
(20.5954 -0.416908 -1.56732e-16)
(21.0782 -0.664919 1.2364e-17)
(21.5823 -0.856008 6.78097e-16)
(22.1034 -0.988835 -1.17802e-16)
(22.6367 -1.06122 1.12391e-16)
(23.1765 -1.07079 -8.24674e-17)
(23.716 -1.01463 1.14955e-16)
(24.2445 -0.891242 -5.09906e-16)
(24.7466 -0.702359 -1.69466e-16)
(25.2059 -0.454529 1.28036e-16)
(25.6111 -0.1583 -7.20438e-18)
(25.9562 0.175451 0)
(26.2376 0.536614 -1.72343e-18)
(26.453 0.915095 1.55899e-18)
(26.6009 1.30055 2.49923e-17)
(26.6816 1.68321 -7.0119e-17)
(26.6958 2.05392 2.56452e-16)
(26.6438 2.40349 -1.82533e-16)
(26.5199 2.7248 2.34177e-18)
(26.3256 3.00369 5.99426e-17)
(26.0121 3.23456 1.51772e-17)
(25.6314 3.30938 -3.97078e-17)
(24.933 3.24497 -3.58983e-15)
(20.2274 9.9888 -1.16133e-17)
(20.6557 10.4771 0)
(21.1754 10.9845 0)
(21.7595 11.4711 -3.78349e-17)